/*--------------------------------*- C++ -*----------------------------------*\
| =========                 |                                                 |
| \\      /  F ield         | OpenFOAM: The Open Source CFD Toolbox           |
|  \\    /   O peration     | Version:  2.4.0                                 |
|   \\  /    A nd           | Web:      www.OpenFOAM.org                      |
|    \\/     M anipulation  |                                                 |
\*---------------------------------------------------------------------------*/
FoamFile
{
    version     2.0;
    format      ascii;
    class       volScalarField;
    location    "0";
    object      V;
}
// * * * * * * * * * * * * * * * * * * * * * * * * * * * * * * * * * * * * * //

dimensions      [0 3 0 0 0 0 0];

internalField   nonuniform List<scalar> 
635
(
2e-09
2e-09
2e-09
2e-09
2e-09
2e-09
2e-09
2e-09
2e-09
2e-09
2e-09
2e-09
2e-09
2e-09
2e-09
2e-09
2e-09
2e-09
2e-09
2e-09
2e-09
2e-09
2e-09
2e-09
2e-09
2e-09
2e-09
2e-09
2e-09
2e-09
2e-09
2e-09
2e-09
2e-09
2e-09
2e-09
2e-09
2e-09
2e-09
2e-09
2e-09
2e-09
2e-09
2e-09
2e-09
2e-09
2e-09
2e-09
2e-09
2e-09
2e-09
2e-09
2e-09
2e-09
2e-09
2e-09
2e-09
2e-09
2e-09
2e-09
2e-09
2e-09
2e-09
2e-09
2e-09
2e-09
2e-09
2e-09
2e-09
2e-09
2e-09
2e-09
2e-09
2e-09
2e-09
2e-09
2e-09
2e-09
2e-09
2e-09
2e-09
2e-09
2e-09
2e-09
2e-09
2e-09
2e-09
2e-09
2e-09
2e-09
2e-09
2e-09
2e-09
2e-09
2e-09
2e-09
2e-09
2e-09
2e-09
2e-09
2e-09
2e-09
2e-09
2e-09
2e-09
2e-09
2e-09
2e-09
2e-09
2e-09
2e-09
2e-09
2e-09
2e-09
2e-09
2e-09
2e-09
2e-09
2e-09
2e-09
2e-09
2e-09
2e-09
2e-09
2e-09
2e-09
2e-09
2e-09
2e-09
2e-09
2e-09
2e-09
2e-09
2e-09
2e-09
2e-09
2e-09
2e-09
2e-09
2e-09
2e-09
2e-09
2e-09
2e-09
2e-09
2e-09
2e-09
2e-09
2e-09
2e-09
2e-09
2e-09
2e-09
2e-09
2e-09
2e-09
2e-09
2e-09
2e-09
2e-09
2e-09
2e-09
2e-09
2e-09
2e-09
2e-09
2e-09
2e-09
2e-09
2e-09
2e-09
2e-09
2e-09
2e-09
2e-09
2e-09
2e-09
2e-09
2e-09
2e-09
2e-09
2e-09
2e-09
2e-09
2e-09
2e-09
2e-09
2e-09
2e-09
2e-09
2e-09
2e-09
2e-09
2e-09
2e-09
2e-09
2e-09
2e-09
2e-09
2e-09
1.99658e-09
2.01168e-09
2.02689e-09
2.04222e-09
2.05766e-09
2.07323e-09
2.0889e-09
2.1047e-09
2.12062e-09
2.13666e-09
2.15282e-09
2.1691e-09
2.1855e-09
2.20203e-09
2.21868e-09
2.23546e-09
2.25237e-09
2.2694e-09
2.28656e-09
2.30386e-09
2.32128e-09
2.33883e-09
2.35652e-09
2.37434e-09
2.3923e-09
2.41039e-09
2.42862e-09
2.44699e-09
2.46549e-09
2.48414e-09
2.50293e-09
2.52186e-09
2.54093e-09
2.56014e-09
2.5795e-09
2.59901e-09
2.61867e-09
2.63847e-09
2.65843e-09
2.67853e-09
2.69879e-09
2.7192e-09
2.73976e-09
2.76048e-09
2.78136e-09
2.80239e-09
2.82359e-09
2.84494e-09
2.86646e-09
2.88813e-09
2.90998e-09
2.93198e-09
2.95416e-09
2.9765e-09
2.99901e-09
3.02169e-09
3.04454e-09
3.06757e-09
3.09076e-09
3.11414e-09
3.13769e-09
3.16142e-09
3.18533e-09
3.20942e-09
3.23369e-09
3.25814e-09
3.28278e-09
3.30761e-09
3.33263e-09
3.35783e-09
3.38322e-09
3.40881e-09
3.43459e-09
3.46056e-09
3.48674e-09
3.5131e-09
3.53967e-09
3.56644e-09
3.59341e-09
3.62059e-09
3.64797e-09
3.67556e-09
3.70336e-09
3.73136e-09
3.75958e-09
3.78801e-09
3.81666e-09
3.84553e-09
3.87461e-09
3.90391e-09
3.93344e-09
3.96318e-09
3.99315e-09
4.02335e-09
4.05378e-09
4.08444e-09
4.11533e-09
4.14645e-09
4.17781e-09
4.2094e-09
4.24124e-09
4.27331e-09
4.30563e-09
4.33819e-09
4.371e-09
4.40406e-09
4.43736e-09
4.47092e-09
4.50473e-09
4.5388e-09
4.57313e-09
4.60771e-09
4.64256e-09
4.67767e-09
4.71304e-09
4.74869e-09
4.7846e-09
4.82078e-09
4.85724e-09
4.89398e-09
4.93099e-09
4.96828e-09
5.00585e-09
5.04371e-09
5.08185e-09
5.12029e-09
5.15901e-09
5.19802e-09
5.23734e-09
5.27694e-09
5.31685e-09
5.35706e-09
5.39758e-09
5.4384e-09
5.47952e-09
5.52096e-09
5.56272e-09
5.60479e-09
5.64717e-09
5.68988e-09
5.73291e-09
5.77627e-09
5.81995e-09
5.86397e-09
5.90831e-09
5.953e-09
5.99802e-09
6.04338e-09
6.08908e-09
6.13513e-09
6.18153e-09
6.22828e-09
6.27538e-09
6.32284e-09
6.37066e-09
6.41884e-09
6.46738e-09
6.51629e-09
6.56557e-09
6.61522e-09
6.66525e-09
6.71566e-09
6.76645e-09
6.81762e-09
6.86918e-09
6.92113e-09
6.97347e-09
7.02621e-09
7.07934e-09
7.13288e-09
7.18683e-09
7.24118e-09
7.29594e-09
7.35112e-09
7.40671e-09
7.46273e-09
7.51916e-09
7.57603e-09
7.63332e-09
7.69105e-09
7.74922e-09
7.80782e-09
7.86687e-09
7.92636e-09
7.98631e-09
8e-09
8e-09
8e-09
8e-09
8e-09
8e-09
8e-09
8e-09
8e-09
8e-09
8e-09
8e-09
8e-09
8e-09
8e-09
8e-09
8e-09
8e-09
8e-09
8e-09
8e-09
8e-09
8e-09
8e-09
8e-09
8e-09
8e-09
8e-09
8e-09
8e-09
8e-09
8e-09
8e-09
8e-09
8e-09
8e-09
8e-09
8e-09
8e-09
8e-09
8e-09
8e-09
8e-09
8e-09
8e-09
8e-09
8e-09
8e-09
8e-09
8e-09
8e-09
8e-09
8e-09
8e-09
8e-09
8e-09
8e-09
8e-09
8e-09
8e-09
8e-09
8e-09
8e-09
8e-09
8e-09
8e-09
8e-09
8e-09
8e-09
8e-09
8e-09
8e-09
8e-09
8e-09
8e-09
8e-09
8e-09
8e-09
8e-09
8e-09
8e-09
8e-09
8e-09
8e-09
8e-09
8e-09
8e-09
8e-09
8e-09
8e-09
8e-09
8e-09
8e-09
8e-09
8e-09
8e-09
8e-09
8e-09
8e-09
8e-09
8e-09
8e-09
8e-09
8e-09
8e-09
8e-09
8e-09
8e-09
8e-09
8e-09
8e-09
8e-09
8e-09
8e-09
8e-09
8e-09
8e-09
8e-09
8e-09
8e-09
8e-09
8e-09
8e-09
8e-09
8e-09
8e-09
8e-09
8e-09
8e-09
8e-09
8e-09
8e-09
8e-09
8e-09
8e-09
8e-09
8e-09
8e-09
8e-09
8e-09
8e-09
8e-09
8e-09
8e-09
8e-09
8e-09
8e-09
8e-09
8e-09
8e-09
8e-09
8e-09
8e-09
8e-09
8e-09
8e-09
8e-09
8e-09
8e-09
8e-09
8e-09
8e-09
8e-09
8e-09
8e-09
8e-09
8e-09
8e-09
8e-09
8e-09
8e-09
8e-09
8e-09
8e-09
8e-09
8e-09
8e-09
8e-09
8e-09
8e-09
8e-09
8e-09
8e-09
8e-09
8e-09
8e-09
8e-09
8e-09
8e-09
8e-09
8e-09
8e-09
8e-09
8e-09
8e-09
8e-09
8e-09
8e-09
8e-09
8e-09
8e-09
8e-09
8e-09
8e-09
8e-09
8e-09
8e-09
8e-09
8e-09
8e-09
8e-09
8e-09
8e-09
8e-09
8e-09
8e-09
8e-09
8e-09
8e-09
8e-09
8e-09
8e-09
8e-09
8e-09
8e-09
8e-09
8e-09
8e-09
8e-09
8e-09
8e-09
8e-09
8e-09
8e-09
8e-09
8e-09
8e-09
8e-09
8e-09
8e-09
8e-09
8e-09
8e-09
8e-09
8e-09
8e-09
8e-09
8e-09
8e-09
8e-09
)
;

boundaryField
{
    wall_bottom
    {
        type            calculated;
        value           uniform 8e-06;
    }
    wall_top
    {
        type            calculated;
        value           uniform 8e-06;
    }
    front1
    {
        type            cyclic;
    }
    back1
    {
        type            cyclic;
    }
    left1
    {
        type            cyclic;
    }
    right1
    {
        type            cyclic;
    }
    front2
    {
        type            cyclic;
    }
    back2
    {
        type            cyclic;
    }
    left2
    {
        type            cyclic;
    }
    right2
    {
        type            cyclic;
    }
    front3
    {
        type            cyclic;
    }
    back3
    {
        type            cyclic;
    }
    left3
    {
        type            cyclic;
    }
    right3
    {
        type            cyclic;
    }
}


// ************************************************************************* //
