/*--------------------------------*- C++ -*----------------------------------*\
| =========                 |                                                 |
| \\      /  F ield         | OpenFOAM: The Open Source CFD Toolbox           |
|  \\    /   O peration     | Version:  2.4.0                                 |
|   \\  /    A nd           | Web:      www.OpenFOAM.org                      |
|    \\/     M anipulation  |                                                 |
\*---------------------------------------------------------------------------*/
FoamFile
{
    version     2.0;
    format      ascii;
    class       volScalarField;
    location    "0";
    object      voidfraction;
}
// * * * * * * * * * * * * * * * * * * * * * * * * * * * * * * * * * * * * * //

dimensions      [0 0 0 0 0 0 0];

internalField   nonuniform List<scalar> 
635
(
0.411524
0.410991
0.409396
0.406764
0.402193
0.399377
0.397193
0.394805
0.392786
0.390549
0.389807
0.388965
0.388628
0.389218
0.390703
0.392002
0.39321
0.393468
0.393654
0.393736
0.393689
0.393435
0.393071
0.392778
0.392086
0.391377
0.390562
0.390075
0.390065
0.390234
0.390382
0.390579
0.390722
0.390871
0.390996
0.391134
0.391334
0.391448
0.391518
0.391541
0.391266
0.391269
0.39128
0.391296
0.391327
0.391384
0.39147
0.391599
0.391751
0.392013
0.392306
0.392639
0.392759
0.392466
0.391796
0.39122
0.390774
0.391074
0.391723
0.392266
0.392575
0.393182
0.393936
0.39434
0.394254
0.394058
0.393806
0.393431
0.393159
0.392806
0.392496
0.392306
0.392236
0.392215
0.392234
0.392324
0.392541
0.39267
0.392747
0.392773
0.393254
0.393276
0.393344
0.393456
0.393655
0.393833
0.394034
0.394306
0.3946
0.395064
0.395528
0.396053
0.39634
0.39634
0.395931
0.395574
0.395345
0.395749
0.39654
0.397184
0.397545
0.398248
0.399136
0.399636
0.399745
0.399744
0.399688
0.398936
0.398076
0.396794
0.395663
0.395156
0.39509
0.395248
0.395543
0.396175
0.397484
0.398246
0.398707
0.398861
0.397688
0.397666
0.3976
0.397491
0.397304
0.397227
0.39721
0.397226
0.397282
0.397437
0.397695
0.397988
0.398368
0.399416
0.400659
0.401715
0.402663
0.402712
0.402574
0.402411
0.402221
0.401673
0.400903
0.40032
0.399085
0.397836
0.396397
0.39547
0.395372
0.395549
0.395704
0.396139
0.396527
0.396982
0.397398
0.39793
0.39879
0.399286
0.399586
0.399686
0.391599
0.39137
0.390688
0.389561
0.387599
0.386341
0.385308
0.384132
0.383079
0.381787
0.381081
0.380279
0.379736
0.379237
0.379163
0.379128
0.379155
0.379417
0.379886
0.380259
0.380432
0.380706
0.381012
0.381112
0.380579
0.379953
0.37926
0.37946
0.380187
0.381437
0.382539
0.406442
0.430802
0.461282
0.490232
0.529332
0.594804
0.632579
0.655457
0.663106
1
1
1
1
1
1
1
1
1
1
1
1
1
1
1
1
1
1
1
1
1
1
1
1
1
1
1
1
1
1
1
1
1
1
1
1
1
1
1
1
1
1
1
1
1
1
1
1
1
1
1
1
1
1
1
1
1
1
1
1
1
1
1
1
1
1
1
1
1
1
1
1
1
1
1
1
1
1
1
1
1
1
1
1
1
1
1
1
1
1
1
1
1
1
1
1
1
1
1
1
1
1
1
1
1
1
1
1
1
1
1
1
1
1
1
1
1
1
1
1
1
1
1
1
1
1
1
1
1
1
1
1
1
1
1
1
1
1
1
1
1
1
1
1
1
1
1
1
1
1
1
1
1
1
1
1
1
1
1
1
1
1
1
1
1
1
1
1
1
1
1
1
1
1
1
1
1
1
1
1
1
1
1
1
1
1
1
1
1
1
1
1
1
1
1
1
1
1
1
1
1
1
1
1
1
1
1
1
1
1
1
1
1
1
1
1
1
1
1
1
1
1
1
1
1
1
1
1
1
1
1
1
1
1
1
1
1
1
1
1
1
1
1
1
1
1
1
1
1
1
1
1
1
1
1
1
1
1
1
1
1
1
1
1
1
1
1
1
1
1
1
1
1
1
1
1
1
1
1
1
1
1
1
1
1
1
1
1
1
1
1
1
1
1
1
1
1
1
1
1
1
1
1
1
1
1
1
1
1
1
1
1
1
1
1
1
1
1
1
1
1
1
1
1
1
1
1
1
1
1
1
1
1
1
1
1
1
1
1
1
1
1
1
1
1
1
1
1
1
1
1
1
1
1
1
1
1
1
1
1
1
1
1
1
1
1
1
1
1
1
1
1
1
1
1
1
1
1
1
1
1
1
1
1
1
1
1
1
1
1
1
1
1
1
1
1
1
1
1
1
1
1
1
1
1
1
1
1
1
1
1
1
1
1
1
1
1
1
1
1
1
1
1
1
1
1
1
1
1
1
1
1
1
1
1
)
;

boundaryField
{
    wall_bottom
    {
        type            zeroGradient;
    }
    wall_top
    {
        type            zeroGradient;
    }
    front1
    {
        type            cyclic;
    }
    back1
    {
        type            cyclic;
    }
    left1
    {
        type            cyclic;
    }
    right1
    {
        type            cyclic;
    }
    front2
    {
        type            cyclic;
    }
    back2
    {
        type            cyclic;
    }
    left2
    {
        type            cyclic;
    }
    right2
    {
        type            cyclic;
    }
    front3
    {
        type            cyclic;
    }
    back3
    {
        type            cyclic;
    }
    left3
    {
        type            cyclic;
    }
    right3
    {
        type            cyclic;
    }
}


// ************************************************************************* //
