/*--------------------------------*- C++ -*----------------------------------*\
| =========                 |                                                 |
| \\      /  F ield         | OpenFOAM: The Open Source CFD Toolbox           |
|  \\    /   O peration     | Version:  2.4.0                                 |
|   \\  /    A nd           | Web:      www.OpenFOAM.org                      |
|    \\/     M anipulation  |                                                 |
\*---------------------------------------------------------------------------*/
FoamFile
{
    version     2.0;
    format      ascii;
    class       volVectorField;
    location    "0";
    object      impParticleForces;
}
// * * * * * * * * * * * * * * * * * * * * * * * * * * * * * * * * * * * * * //

dimensions      [1 1 -2 0 0 0 0];

internalField   nonuniform List<vector> 
463
(
(4.84933e-05 -2.95251e-08 8.37649e-08)
(4.84414e-05 -3.0005e-08 8.67919e-08)
(4.82481e-05 -3.17925e-08 9.80689e-08)
(4.79679e-05 -3.43806e-08 1.14467e-07)
(4.76829e-05 -3.69917e-08 1.3224e-07)
(4.75051e-05 -3.85833e-08 1.45159e-07)
(4.7278e-05 -4.05865e-08 1.6317e-07)
(4.70835e-05 -4.22598e-08 1.80629e-07)
(4.69334e-05 -4.34221e-08 2.00486e-07)
(4.68184e-05 -4.42612e-08 2.18271e-07)
(4.67289e-05 -4.46569e-08 2.3494e-07)
(4.66738e-05 -4.44268e-08 2.50419e-07)
(4.66522e-05 -4.34446e-08 2.66254e-07)
(4.66343e-05 -4.29013e-08 2.74857e-07)
(4.65869e-05 -4.26165e-08 2.79497e-07)
(4.64967e-05 -4.24069e-08 2.8326e-07)
(4.6452e-05 -4.23514e-08 2.84676e-07)
(4.64144e-05 -4.25479e-08 2.84281e-07)
(4.63455e-05 -4.30917e-08 2.82632e-07)
(4.63279e-05 -4.38679e-08 2.79651e-07)
(4.6369e-05 -4.54292e-08 2.73133e-07)
(4.64558e-05 -4.83103e-08 2.6098e-07)
(4.64755e-05 -5.06358e-08 2.49619e-07)
(4.64388e-05 -5.27069e-08 2.37847e-07)
(4.63623e-05 -5.46359e-08 2.25587e-07)
(4.62861e-05 -5.5997e-08 2.11704e-07)
(4.62457e-05 -5.4903e-08 1.98931e-07)
(4.62152e-05 -5.27999e-08 1.85513e-07)
(4.61997e-05 -5.07466e-08 1.75756e-07)
(4.61956e-05 -4.64396e-08 1.61965e-07)
(4.61992e-05 -4.18365e-08 1.49086e-07)
(4.62019e-05 -3.86437e-08 1.40224e-07)
(4.62026e-05 -3.77866e-08 1.37845e-07)
(4.59003e-05 2.75733e-08 8.49462e-08)
(4.58956e-05 3.3064e-08 8.44119e-08)
(4.58779e-05 5.35188e-08 8.24214e-08)
(4.58514e-05 8.32561e-08 7.95455e-08)
(4.58078e-05 1.15385e-07 7.6744e-08)
(4.57525e-05 1.38573e-07 7.52062e-08)
(4.56589e-05 1.70789e-07 7.34138e-08)
(4.55474e-05 2.01875e-07 7.21133e-08)
(4.53636e-05 2.36832e-07 7.184e-08)
(4.51834e-05 2.68032e-07 7.19239e-08)
(4.49747e-05 2.91822e-07 8.46716e-08)
(4.472e-05 3.05571e-07 1.15886e-07)
(4.43848e-05 3.09013e-07 1.72946e-07)
(4.42218e-05 3.08079e-07 2.16591e-07)
(4.42504e-05 2.92252e-07 3.11178e-07)
(4.44466e-05 2.58219e-07 4.89703e-07)
(4.45812e-05 2.40656e-07 5.86363e-07)
(4.49213e-05 2.21993e-07 7.28768e-07)
(4.5732e-05 1.8467e-07 1.04407e-06)
(4.66259e-05 1.6421e-07 1.33126e-06)
(4.81793e-05 1.54088e-07 1.75695e-06)
(5.10859e-05 1.41496e-07 2.52493e-06)
(5.62426e-05 1.74563e-07 3.3728e-06)
(6.38377e-05 2.50006e-07 4.37216e-06)
(7.32634e-05 3.56298e-07 5.49427e-06)
(8.08159e-05 4.50841e-07 6.45776e-06)
(7.88689e-05 4.64214e-07 6.46865e-06)
(7.32072e-05 4.48336e-07 6.12412e-06)
(6.71042e-05 4.2036e-07 5.67815e-06)
(5.31513e-05 3.36739e-07 4.52349e-06)
(3.79189e-05 2.40424e-07 3.22842e-06)
(2.73412e-05 1.73355e-07 2.32782e-06)
(2.45017e-05 1.55352e-07 2.08608e-06)
(5.89544e-06 3.73797e-08 5.01938e-07)
(5.71823e-06 3.62562e-08 4.86851e-07)
(5.05808e-06 3.20705e-08 4.30646e-07)
(4.10267e-06 2.60128e-08 3.49302e-07)
(3.14461e-06 1.99383e-08 2.67732e-07)
(2.57065e-06 1.62991e-08 2.18865e-07)
(1.85672e-06 1.17724e-08 1.58081e-07)
(1.27197e-06 8.06493e-09 1.08297e-07)
(9.02981e-07 5.72535e-09 7.68804e-08)
(6.53171e-07 4.14142e-09 5.56113e-08)
(4.46995e-07 2.83416e-09 3.80574e-08)
(2.98326e-07 1.89152e-09 2.53995e-08)
(1.99633e-07 1.26576e-09 1.69968e-08)
(1.45858e-07 9.24805e-10 1.24184e-08)
(1.11336e-07 7.05919e-10 9.47915e-09)
(7.53589e-08 4.77809e-10 6.41606e-09)
(5.93591e-08 3.76363e-10 5.05384e-09)
(4.92472e-08 3.1225e-10 4.19292e-09)
(3.08756e-08 1.95764e-10 2.62875e-09)
(2.11454e-08 1.3407e-10 1.80032e-09)
(1.65472e-08 1.04916e-10 1.40883e-09)
(1.04517e-08 6.62686e-11 8.89862e-10)
(6.7525e-09 4.28139e-11 5.74909e-10)
(4.6801e-09 2.9674e-11 3.98465e-10)
(3.70711e-09 2.35048e-11 3.15625e-10)
(2.70268e-09 1.71361e-11 2.30106e-10)
(2.05629e-09 1.30378e-11 1.75073e-10)
(1.49024e-09 9.44876e-12 1.26879e-10)
(1.14055e-09 7.23159e-12 9.71067e-11)
(8.12661e-10 5.15263e-12 6.91903e-11)
(5.75226e-10 3.64719e-12 4.89749e-11)
(4.14761e-10 2.62977e-12 3.5313e-11)
(3.71688e-10 2.35667e-12 3.16457e-11)
(8.94324e-11 5.67043e-13 7.61431e-12)
(8.67443e-11 5.49999e-13 7.38544e-12)
(7.67299e-11 4.86503e-13 6.53281e-12)
(6.22365e-11 3.94608e-13 5.29884e-12)
(4.7703e-11 3.02459e-13 4.06145e-12)
(3.89962e-11 2.47253e-13 3.32015e-12)
(2.8166e-11 1.78585e-13 2.39806e-12)
(1.92956e-11 1.22343e-13 1.64284e-12)
(1.3698e-11 8.68514e-14 1.16626e-12)
(9.9084e-12 6.28235e-14 8.43606e-13)
(6.78073e-12 4.29928e-14 5.77313e-13)
(4.52542e-12 2.86932e-14 3.85296e-13)
(3.02829e-12 1.92008e-14 2.57831e-13)
(2.21255e-12 1.40286e-14 1.88378e-13)
(1.68887e-12 1.07083e-14 1.43792e-13)
(1.14312e-12 7.24797e-15 9.73266e-14)
(9.00418e-13 5.70908e-15 7.66622e-14)
(7.47029e-13 4.73652e-15 6.36025e-14)
(4.68345e-13 2.96953e-15 3.98752e-14)
(3.20746e-13 2.03368e-15 2.73083e-14)
(2.50997e-13 1.59144e-15 2.13699e-14)
(1.58535e-13 1.00519e-15 1.34977e-14)
(1.02423e-13 6.49408e-16 8.72028e-15)
(7.09871e-14 4.50091e-16 6.04387e-15)
(5.62286e-14 3.56515e-16 4.78733e-15)
(4.0993e-14 2.59914e-16 3.49016e-15)
(3.11886e-14 1.97751e-16 2.65542e-15)
(2.26027e-14 1.43312e-16 1.92441e-15)
(1.72987e-14 1.09682e-16 1.47283e-15)
(1.23254e-14 7.81486e-17 1.04939e-15)
(8.7241e-15 5.53148e-17 7.42777e-16)
(6.29027e-15 3.98833e-17 5.35558e-16)
(5.63696e-15 3.5741e-17 4.79934e-16)
(1.35618e-15 8.59882e-18 1.15466e-16)
(1.31541e-15 8.34034e-18 1.11995e-16)
(1.16354e-15 7.37744e-18 9.90651e-17)
(9.43755e-16 5.98386e-18 8.0352e-17)
(7.23355e-16 4.58642e-18 6.1587e-17)
(5.91318e-16 3.74925e-18 5.03453e-17)
(4.27082e-16 2.70791e-18 3.63621e-17)
(2.92566e-16 1.85503e-18 2.49094e-17)
(2.07687e-16 1.31685e-18 1.76826e-17)
(1.50225e-16 9.52504e-19 1.27903e-17)
(1.028e-16 6.51808e-19 8.75254e-18)
(6.86049e-17 4.3499e-19 5.8411e-18)
(4.59068e-17 2.91073e-19 3.90856e-18)
(3.35394e-17 2.12658e-19 2.8556e-18)
(2.56002e-17 1.62319e-19 2.17964e-18)
(1.73268e-17 1.09861e-19 1.47523e-18)
(1.36475e-17 8.65323e-20 1.16196e-18)
(1.13223e-17 7.17896e-20 9.63997e-19)
(7.09795e-18 4.50048e-20 6.0433e-19)
(4.86064e-18 3.08191e-20 4.13844e-19)
(3.8035e-18 2.41163e-20 3.23837e-19)
(2.40221e-18 1.52313e-20 2.04528e-19)
(1.5518e-18 9.83923e-21 1.32124e-19)
(1.0754e-18 6.81863e-21 9.15618e-20)
(8.51762e-19 5.40063e-21 7.25204e-20)
(6.20885e-19 3.93674e-21 5.28632e-20)
(4.72288e-19 2.99456e-21 4.02114e-20)
(3.42143e-19 2.16938e-21 2.91307e-20)
(2.61737e-19 1.65956e-21 2.22848e-20)
(1.86315e-19 1.18135e-21 1.58634e-20)
(1.31684e-19 8.34958e-22 1.1212e-20)
(9.47616e-20 6.00851e-22 8.06835e-21)
(8.48506e-20 5.3801e-22 7.2245e-21)
(1.85505e-20 1.17631e-22 1.57962e-21)
(1.85505e-20 1.17631e-22 1.57962e-21)
(1.73372e-20 1.09938e-22 1.47631e-21)
(1.33178e-20 8.44504e-23 1.13405e-21)
(9.81344e-21 6.22289e-23 8.35643e-22)
(9.27371e-21 5.88063e-23 7.89683e-22)
(6.1082e-21 3.87333e-23 5.20132e-22)
(4.03094e-21 2.5561e-23 3.43248e-22)
(3.48425e-21 2.20944e-23 2.96696e-22)
(2.03634e-21 1.29129e-23 1.73401e-22)
(1.19198e-21 7.55868e-24 1.01502e-22)
(9.572e-22 6.06988e-24 8.15099e-23)
(6.70736e-22 4.25334e-24 5.71163e-23)
(3.40805e-22 2.16115e-24 2.90213e-23)
(3.00554e-22 1.9059e-24 2.55937e-23)
(1.88736e-22 1.19683e-24 1.60718e-23)
(1.29037e-22 8.18264e-25 1.09881e-23)
(1.01687e-22 6.44828e-25 8.65911e-24)
(5.60319e-23 3.55318e-25 4.77143e-24)
(3.77163e-23 2.39172e-25 3.21177e-24)
(2.58778e-23 1.641e-25 2.20365e-24)
(1.15493e-23 7.32386e-26 9.83497e-25)
(1.00699e-23 6.38574e-26 8.57521e-25)
(6.43386e-24 4.07999e-26 5.47888e-25)
(4.19716e-24 2.66161e-26 3.5742e-25)
(3.26169e-24 2.0684e-26 2.77759e-25)
(1.66285e-24 1.05449e-26 1.41606e-25)
(1.28043e-24 8.11986e-27 1.0904e-25)
(5.22026e-25 3.31045e-27 4.44553e-26)
(2.61369e-25 1.65748e-27 2.2258e-26)
(1.93453e-25 1.22679e-27 1.64744e-26)
(1.42846e-25 9.05865e-28 1.21647e-26)
(1.05375e-25 6.68242e-28 8.97371e-27)
(5.20531e-26 3.30102e-28 4.43288e-27)
(4.11985e-26 2.61266e-28 3.5085e-27)
(1.78952e-26 1.13487e-28 1.52399e-27)
(1.31849e-26 8.36153e-29 1.12286e-27)
(6.3351e-27 4.01755e-29 5.39512e-28)
(4.39657e-27 2.78819e-29 3.74423e-28)
(2.3909e-27 1.51626e-29 2.03616e-28)
(1.67995e-27 1.06539e-29 1.43069e-28)
(8.32263e-28 5.27805e-30 7.08778e-29)
(4.95296e-28 3.14108e-30 4.21811e-29)
(2.54378e-28 1.61324e-30 2.1664e-29)
(1.44444e-28 9.16059e-31 1.23016e-29)
(8.94969e-29 5.67585e-31 7.62206e-30)
(5.19924e-29 3.29732e-31 4.42797e-30)
(3.17085e-29 2.01094e-31 2.70048e-30)
(1.59157e-29 1.00937e-31 1.35548e-30)
(6.43244e-30 4.07947e-32 5.47832e-31)
(3.20056e-30 2.02982e-32 2.72585e-31)
(1.94811e-30 1.2355e-32 1.65916e-31)
(1.35468e-30 8.59154e-33 1.15376e-31)
(6.88301e-31 4.36529e-33 5.86218e-32)
(3.60035e-31 2.2834e-33 3.06639e-32)
(2.0298e-31 1.28733e-33 1.72877e-32)
(6.88553e-32 4.36694e-34 5.86441e-33)
(5.20476e-32 3.30097e-34 4.43291e-33)
(2.3534e-32 1.49258e-34 2.00441e-33)
(1.34826e-32 8.55102e-35 1.14834e-33)
(6.00359e-33 3.80767e-35 5.11339e-34)
(2.89035e-33 1.83316e-35 2.46178e-34)
(1.35886e-33 8.61838e-36 1.15738e-34)
(8.86385e-34 5.62179e-36 7.5496e-35)
(3.26241e-34 2.06916e-36 2.77872e-35)
(1.69794e-34 1.07691e-36 1.44621e-35)
(5.73526e-35 3.63758e-37 4.88502e-36)
(3.21592e-35 2.03969e-37 2.73918e-36)
(1.65266e-35 1.04821e-37 1.40767e-36)
(9.20519e-36 5.83843e-38 7.84059e-37)
(3.61933e-36 2.2956e-38 3.08282e-37)
(1.489e-36 9.44421e-39 1.26829e-37)
(7.16555e-37 4.5449e-39 6.10349e-38)
(3.75036e-37 2.37875e-39 3.19451e-38)
(1.39816e-37 8.86821e-40 1.19094e-38)
(5.69176e-38 3.61017e-40 4.84822e-39)
(2.62261e-38 1.66347e-40 2.23394e-39)
(1.27558e-38 8.09079e-41 1.08655e-39)
(5.22538e-39 3.31438e-41 4.45105e-40)
(1.61479e-39 1.02425e-41 1.37551e-40)
(6.14491e-40 3.89768e-42 5.2344e-41)
(3.3164e-40 2.10358e-42 2.82502e-41)
(1.46934e-40 9.32001e-43 1.25164e-41)
(5.34423e-41 3.38986e-43 4.55244e-42)
(1.81874e-41 1.15365e-43 1.54931e-42)
(8.19412e-42 5.19767e-44 6.98027e-43)
(3.39432e-42 2.15308e-44 2.8915e-43)
(1.31573e-42 8.34597e-45 1.12083e-43)
(4.27488e-43 2.71167e-45 3.64167e-44)
(1.81495e-43 1.15128e-45 1.54612e-44)
(5.6796e-44 3.60281e-46 4.83846e-45)
(1.45035e-44 9.20124e-47 1.23574e-45)
(4.12329e-45 2.61629e-47 3.51385e-46)
(2.05162e-45 1.3018e-47 1.74842e-46)
(6.32998e-46 4.01653e-48 5.39449e-47)
(2.49242e-46 1.58151e-48 2.12409e-47)
(7.15044e-47 4.53719e-49 6.09379e-48)
(2.97093e-47 1.88516e-49 2.53192e-48)
(7.78509e-48 4.93999e-50 6.63482e-49)
(2.85534e-48 1.81183e-50 2.43345e-49)
(9.04006e-49 5.73632e-51 7.70438e-50)
(2.91749e-49 1.8513e-51 2.48645e-50)
(6.12206e-50 3.8848e-52 5.21762e-51)
(2.70649e-50 1.71743e-52 2.30665e-51)
(8.21305e-51 5.2117e-53 6.99975e-52)
(2.34746e-51 1.48962e-53 2.00069e-52)
(7.20484e-52 4.57199e-54 6.14059e-53)
(2.10838e-52 1.33792e-54 1.79695e-53)
(6.03912e-53 3.83228e-55 5.14712e-54)
(1.64296e-53 1.04259e-55 1.4003e-54)
(4.93959e-54 3.13457e-56 4.21004e-55)
(9.56831e-55 6.07192e-57 8.15521e-56)
(3.26774e-55 2.07368e-57 2.78515e-56)
(6.60059e-56 4.18869e-58 5.62584e-57)
(2.28705e-56 1.45135e-58 1.94932e-57)
(4.96367e-57 3.14995e-59 4.23071e-58)
(1.61113e-57 1.02243e-59 1.37323e-58)
(3.17376e-58 2.0141e-60 2.70515e-59)
(8.53767e-59 5.4181e-61 7.2771e-60)
(1.32168e-59 8.3876e-62 1.12655e-60)
(4.35618e-60 2.76451e-62 3.71305e-61)
(1.11273e-60 7.06163e-63 9.48457e-62)
(1.94916e-61 1.23699e-63 1.66143e-62)
(5.25145e-62 3.33273e-64 4.47625e-63)
(1.08471e-62 6.88391e-65 9.24591e-64)
(2.51168e-63 1.59399e-65 2.14093e-64)
(4.39053e-64 2.7864e-66 3.74247e-65)
(8.32758e-65 5.28504e-67 7.09846e-66)
(2.16473e-65 1.37383e-67 1.84523e-66)
(3.46341e-66 2.19805e-68 2.95226e-67)
(8.92461e-67 5.66399e-69 7.60747e-68)
(1.18431e-67 7.51625e-70 1.00953e-68)
(3.31471e-68 2.1037e-70 2.82554e-69)
(6.51108e-70 4.13343e-72 5.55211e-71)
(3.09696e-70 1.96605e-72 2.64084e-71)
(4.40431e-71 2.79601e-73 3.75566e-72)
(1.09798e-71 6.9703e-74 9.36268e-73)
(1.77798e-72 1.12873e-74 1.51614e-73)
(2.60899e-73 1.65629e-75 2.22477e-74)
(6.07572e-74 3.85713e-76 5.18099e-75)
(8.57308e-75 5.44254e-77 7.31057e-76)
(1.92362e-75 1.22119e-77 1.64034e-76)
(3.211e-76 2.03848e-78 2.73815e-77)
(5.73205e-77 3.63896e-79 4.88798e-78)
(1.14248e-77 7.25297e-80 9.74245e-79)
(1.83866e-78 1.16727e-80 1.56792e-79)
(3.84951e-79 2.44386e-81 3.28267e-80)
(4.22557e-80 2.68261e-82 3.60336e-81)
(1.25453e-80 7.96444e-83 1.0698e-81)
(1.57297e-81 9.9861e-84 1.34137e-82)
(3.9264e-82 2.4927e-84 3.34827e-83)
(5.91366e-83 3.75434e-85 5.04294e-84)
(1.06218e-83 6.74334e-86 9.0579e-85)
(1.98809e-84 1.26216e-86 1.69537e-85)
(3.07306e-85 1.95097e-87 2.62061e-86)
(7.24423e-86 4.5991e-88 6.17766e-87)
(9.47591e-87 6.0159e-89 8.08079e-88)
(2.25668e-87 1.43269e-89 1.92444e-88)
(3.17181e-88 2.01368e-90 2.70486e-89)
(7.02274e-89 4.45852e-91 5.98885e-90)
(9.63406e-90 6.11636e-92 8.21573e-91)
(1.79265e-90 1.1381e-92 1.52875e-91)
(3.62885e-91 2.30386e-93 3.09463e-92)
(6.15119e-92 3.90523e-94 5.24566e-93)
(1.12879e-92 7.16638e-95 9.62618e-94)
(2.05184e-93 1.30266e-95 1.74979e-94)
(2.25556e-94 1.43201e-96 1.92355e-95)
(8.51505e-96 5.40723e-98 7.26355e-97)
(1.51741e-96 9.6358e-99 1.29439e-97)
(3.45247e-97 2.19238e-99 2.94504e-98)
(3.72508e-98 2.36549e-100 3.17759e-99)
(1.06552e-98 6.76628e-101 9.08921e-100)
(1.26941e-99 8.06095e-102 1.08284e-100)
(2.82222e-100 1.79216e-102 2.40743e-101)
(4.82147e-101 3.06171e-103 4.11283e-102)
(8.75362e-102 5.55868e-104 7.46707e-103)
(1.63107e-102 1.03575e-104 1.39134e-103)
(2.69861e-103 1.71367e-105 2.30199e-104)
(5.33275e-104 3.38641e-106 4.549e-105)
(8.43266e-105 5.35488e-107 7.19327e-106)
(1.3248e-105 8.41268e-108 1.13008e-106)
(2.79188e-106 1.77288e-108 2.38154e-107)
(5.0534e-107 3.209e-109 4.31069e-108)
(9.8469e-108 6.25296e-110 8.39968e-109)
(1.3338e-108 8.46989e-111 1.13777e-109)
(3.26168e-109 2.07122e-111 2.7823e-110)
(3.04934e-110 1.93639e-112 2.60116e-111)
(9.16816e-111 5.82193e-113 7.82066e-112)
(1.52054e-111 9.6557e-114 1.29706e-112)
(2.6958e-112 1.71188e-114 2.29959e-113)
(5.30358e-113 3.36787e-115 4.5241e-114)
(7.85764e-114 4.98972e-116 6.70275e-115)
(1.7618e-114 1.11878e-116 1.50286e-115)
(2.13441e-115 1.35539e-117 1.8207e-116)
(5.67581e-116 3.60423e-118 4.8416e-117)
(6.07362e-117 3.85686e-119 5.18095e-118)
(1.74041e-117 1.1052e-119 1.48462e-118)
(2.249e-118 1.42815e-120 1.91845e-119)
(4.85995e-119 3.08617e-121 4.14567e-120)
(4.81541e-120 3.05788e-122 4.10769e-121)
(0 0 0)
(0 0 0)
(0 0 0)
(0 0 0)
(0 0 0)
(0 0 0)
(0 0 0)
(0 0 0)
(0 0 0)
(0 0 0)
(0 0 0)
(0 0 0)
(0 0 0)
(0 0 0)
(0 0 0)
(0 0 0)
(0 0 0)
(0 0 0)
(0 0 0)
(0 0 0)
(0 0 0)
(0 0 0)
(0 0 0)
(0 0 0)
(0 0 0)
(0 0 0)
(0 0 0)
(0 0 0)
(0 0 0)
(0 0 0)
(0 0 0)
(0 0 0)
(0 0 0)
(0 0 0)
(0 0 0)
(0 0 0)
(0 0 0)
(0 0 0)
(0 0 0)
(0 0 0)
(0 0 0)
(0 0 0)
(0 0 0)
(0 0 0)
(0 0 0)
(0 0 0)
(0 0 0)
(0 0 0)
(0 0 0)
(0 0 0)
(0 0 0)
(0 0 0)
(0 0 0)
(0 0 0)
(0 0 0)
(0 0 0)
(0 0 0)
(0 0 0)
(0 0 0)
(0 0 0)
(0 0 0)
(0 0 0)
(0 0 0)
(0 0 0)
(0 0 0)
(0 0 0)
(0 0 0)
(0 0 0)
(0 0 0)
(0 0 0)
(0 0 0)
(0 0 0)
(0 0 0)
(0 0 0)
(0 0 0)
(0 0 0)
(0 0 0)
(0 0 0)
(0 0 0)
(0 0 0)
(0 0 0)
(0 0 0)
(0 0 0)
(0 0 0)
(0 0 0)
(0 0 0)
(0 0 0)
(0 0 0)
(0 0 0)
(0 0 0)
(0 0 0)
(0 0 0)
(0 0 0)
(0 0 0)
(0 0 0)
(0 0 0)
(0 0 0)
(0 0 0)
)
;

boundaryField
{
    wall_bottom
    {
        type            calculated;
        value           uniform (4.85065e-05 -2.9403e-08 8.29949e-08);
    }
    wall_top
    {
        type            calculated;
        value           uniform (0 0 0);
    }
    front1
    {
        type            cyclic;
    }
    back1
    {
        type            cyclic;
    }
    left1
    {
        type            cyclic;
    }
    right1
    {
        type            cyclic;
    }
    front2
    {
        type            cyclic;
    }
    back2
    {
        type            cyclic;
    }
    left2
    {
        type            cyclic;
    }
    right2
    {
        type            cyclic;
    }
    front3
    {
        type            cyclic;
    }
    back3
    {
        type            cyclic;
    }
    left3
    {
        type            cyclic;
    }
    right3
    {
        type            cyclic;
    }
}


// ************************************************************************* //
