/*--------------------------------*- C++ -*----------------------------------*\
| =========                 |                                                 |
| \\      /  F ield         | OpenFOAM: The Open Source CFD Toolbox           |
|  \\    /   O peration     | Version:  2.4.0                                 |
|   \\  /    A nd           | Web:      www.OpenFOAM.org                      |
|    \\/     M anipulation  |                                                 |
\*---------------------------------------------------------------------------*/
FoamFile
{
    version     2.0;
    format      ascii;
    class       volScalarField;
    location    "0";
    object      tf;
}
// * * * * * * * * * * * * * * * * * * * * * * * * * * * * * * * * * * * * * //

dimensions      [0 0 1 0 0 0 0];

internalField   nonuniform List<scalar> 
463
(
10.1916
10.1866
10.1681
10.141
10.1086
10.0804
10.0378
9.99255
9.92986
9.87066
9.79763
9.70301
9.57214
9.49295
9.40632
9.27427
9.20868
9.14113
9.0032
8.9083
8.81269
8.65131
8.52307
8.4105
8.30694
8.19151
8.09058
7.98672
7.91235
7.81041
7.71652
7.65196
7.63463
7.22885
7.2148
7.16248
7.08646
7.00524
6.94804
6.86959
6.79516
6.71497
6.64437
6.57084
6.49133
6.39563
6.33926
6.28472
6.20651
6.16832
6.13152
6.05748
6.0088
5.96406
5.88994
5.83305
5.78522
5.7429
5.69581
5.65485
5.61279
5.58272
5.54163
5.50386
5.47788
5.47091
5.30313
5.29704
5.27434
5.24136
5.20586
5.18045
5.14531
5.11158
5.0742
5.04098
5.00593
4.9674
4.92034
4.89238
4.86407
4.82251
4.80207
4.78187
4.74102
4.71373
4.68777
4.64447
4.6106
4.58143
4.55503
4.52504
4.49712
4.46766
4.44616
4.4156
4.38697
4.36727
4.36197
4.22214
4.21626
4.19435
4.16246
4.12744
4.10128
4.06431
4.02786
3.98469
3.94555
3.90067
3.84645
3.77499
3.73175
3.68419
3.61141
3.57504
3.53609
3.45559
3.39717
3.33239
3.22044
3.10484
2.97466
2.83208
2.6594
2.4686
2.25521
2.09288
1.84435
1.60435
1.43883
1.3944
0.975015
0.972239
0.961897
0.946966
0.932632
0.925134
0.916737
0.911158
0.911875
0.914442
0.904877
0.877687
0.825981
0.783951
0.68263
0.491744
0.395657
0.302786
0.12151
0.0337238
0.0185393
0.0159344
0.0148135
0.0139846
0.0133451
0.0126074
0.0118898
0.0111201
0.0105518
0.00972532
0.00894387
0.00840564
0.00826117
0.00746272
0.00746272
0.00811376
0.0102705
0.0121509
0.0127638
0.0163587
0.0187177
0.0195137
0.0257358
0.0293643
0.0315226
0.0360774
0.0413233
0.0427948
0.0475235
0.0501747
0.0527361
0.057333
0.0592572
0.0624031
0.0662107
0.0671909
0.0696002
0.071212
0.0723213
0.0742837
0.07533
0.078
0.079022
0.0798562
0.0804856
0.081126
0.0820374
0.0824568
0.0833571
0.0836846
0.0843779
0.0846372
0.0851105
0.0853374
0.0858057
0.0860531
0.0864326
0.0866739
0.086924
0.0871512
0.0873397
0.0876776
0.0880401
0.088283
0.0885505
0.088745
0.0890282
0.0893393
0.0895859
0.0900784
0.0902479
0.0906402
0.0909826
0.091393
0.0917847
0.0922518
0.0924899
0.0930419
0.0936045
0.0942031
0.0946521
0.09523
0.0956864
0.0963697
0.0971294
0.0977428
0.0983121
0.0991921
0.100065
0.10082
0.101498
0.102336
0.103769
0.104745
0.105595
0.106628
0.107881
0.109356
0.11051
0.111922
0.113352
0.114991
0.116339
0.118226
0.120607
0.122637
0.124344
0.127007
0.129251
0.132112
0.134693
0.138202
0.141153
0.144762
0.149039
0.153816
0.157982
0.16335
0.169169
0.175096
0.182535
0.189518
0.197696
0.207026
0.219069
0.227809
0.243417
0.253936
0.270853
0.284315
0.302306
0.319395
0.341406
0.358312
0.37816
0.400227
0.419373
0.439494
0.458778
0.47998
0.498263
0.516022
0.534801
0.548831
0.56835
0.577657
0.600896
0.609431
0.625186
0.636283
0.6492
0.661174
0.672546
0.684904
0.694443
0.706986
0.716973
0.727844
0.738629
0.748851
0.761445
0.770425
0.782853
0.792857
0.804507
0.816419
0.827869
0.840856
0.851188
0.866674
0.877416
0.89257
0.905567
0.920784
0.935879
0.950851
0.967406
0.983425
1.00051
1.02003
1.03689
1.05846
1.07388
1.10038
1.11595
1.1421
1.16291
1.18679
1.21046
1.23439
1.26108
1.28231
1.31499
1.33779
1.3674
1.39385
1.42064
1.45142
1.47584
1.51172
1.53579
1.56673
1.59519
1.62411
1.65401
1.68074
1.7152
1.73619
1.77277
1.79459
1.82571
1.85058
1.87989
1.90606
1.93103
1.95722
1.98122
2.00571
2.03066
2.0521
2.07723
2.09507
2.12074
2.13778
2.15899
2.17742
2.19624
2.21415
2.22913
2.24701
2.25946
2.27594
2.28852
2.30088
2.31239
2.32201
2.3329
2.34016
2.34829
2.35469
2.35999
2.36453
2.36738
2.36995
2.37081
2.37098
2.37098
2.37098
2.37098
2.37098
2.37098
2.37098
2.37098
2.37098
2.37098
2.37098
2.37098
2.37098
2.37098
2.37098
2.37098
2.37098
2.37098
2.37098
2.37098
2.37098
2.37098
2.37098
2.37098
2.37098
2.37098
2.37098
2.37098
2.37098
2.37098
2.37098
2.37098
2.37098
2.37098
2.37098
2.37098
2.37098
2.37098
2.37098
2.37098
2.37098
2.37098
2.37098
2.37098
2.37098
2.37098
2.37098
2.37098
2.37098
2.37098
2.37098
2.37098
2.37098
2.37098
2.37098
2.37098
2.37098
2.37098
2.37098
2.37098
2.37098
2.37098
2.37098
2.37098
2.37098
2.37098
)
;

boundaryField
{
    wall_bottom
    {
        type            calculated;
        value           uniform 10.1929;
    }
    wall_top
    {
        type            zeroGradient;
    }
    front1
    {
        type            cyclic;
    }
    back1
    {
        type            cyclic;
    }
    left1
    {
        type            cyclic;
    }
    right1
    {
        type            cyclic;
    }
    front2
    {
        type            cyclic;
    }
    back2
    {
        type            cyclic;
    }
    left2
    {
        type            cyclic;
    }
    right2
    {
        type            cyclic;
    }
    front3
    {
        type            cyclic;
    }
    back3
    {
        type            cyclic;
    }
    left3
    {
        type            cyclic;
    }
    right3
    {
        type            cyclic;
    }
}


// ************************************************************************* //
