/*--------------------------------*- C++ -*----------------------------------*\
| =========                 |                                                 |
| \\      /  F ield         | OpenFOAM: The Open Source CFD Toolbox           |
|  \\    /   O peration     | Version:  2.4.x                                 |
|   \\  /    A nd           | Web:      www.OpenFOAM.org                      |
|    \\/     M anipulation  |                                                 |
\*---------------------------------------------------------------------------*/
FoamFile
{
    version     2.0;
    format      ascii;
    class       volScalarField;
    location    "0";
    object      ccz;
}
// * * * * * * * * * * * * * * * * * * * * * * * * * * * * * * * * * * * * * //

dimensions      [0 1 0 0 0 0 0];

internalField   nonuniform List<scalar> 
463
(
0.000151515
0.000454545
0.000757576
0.00106061
0.00136364
0.00166667
0.0019697
0.00227273
0.00257576
0.00287879
0.00318182
0.00348485
0.00378788
0.00409091
0.00439394
0.00469697
0.005
0.00530303
0.00560606
0.00590909
0.00621212
0.00651515
0.00681818
0.00712121
0.00742424
0.00772727
0.0080303
0.00833333
0.00863636
0.00893939
0.00924242
0.00954545
0.00984848
0.0101515
0.0104545
0.0107576
0.0110606
0.0113636
0.0116667
0.0119697
0.0122727
0.0125758
0.0128788
0.0131818
0.0134848
0.0137879
0.0140909
0.0143939
0.014697
0.015
0.015303
0.0156061
0.0159091
0.0162121
0.0165152
0.0168182
0.0171212
0.0174242
0.0177273
0.0180303
0.0183333
0.0186364
0.0189394
0.0192424
0.0195455
0.0198485
0.0201515
0.0204545
0.0207576
0.0210606
0.0213636
0.0216667
0.0219697
0.0222727
0.0225758
0.0228788
0.0231818
0.0234848
0.0237879
0.0240909
0.0243939
0.024697
0.025
0.025303
0.0256061
0.0259091
0.0262121
0.0265152
0.0268182
0.0271212
0.0274242
0.0277273
0.0280303
0.0283333
0.0286364
0.0289394
0.0292424
0.0295455
0.0298485
0.0301515
0.0304545
0.0307576
0.0310606
0.0313636
0.0316667
0.0319697
0.0322727
0.0325758
0.0328788
0.0331818
0.0334848
0.0337879
0.0340909
0.0343939
0.034697
0.035
0.035303
0.0356061
0.0359091
0.0362121
0.0365152
0.0368182
0.0371212
0.0374242
0.0377273
0.0380303
0.0383333
0.0386364
0.0389394
0.0392424
0.0395455
0.0398485
0.0401515
0.0404545
0.0407576
0.0410606
0.0413636
0.0416667
0.0419697
0.0422727
0.0425758
0.0428788
0.0431818
0.0434848
0.0437879
0.0440909
0.0443939
0.044697
0.045
0.045303
0.0456061
0.0459091
0.0462121
0.0465152
0.0468182
0.0471212
0.0474242
0.0477273
0.0480303
0.0483333
0.0486364
0.0489394
0.0492424
0.0495455
0.0498485
0.050151
0.0504549
0.0507626
0.051074
0.0513892
0.0517083
0.0520313
0.0523583
0.0526893
0.0530243
0.0533634
0.0537068
0.0540543
0.0544061
0.0547622
0.0551226
0.0554875
0.0558569
0.0562308
0.0566093
0.0569924
0.0573803
0.0577728
0.0581702
0.0585725
0.0589797
0.0593919
0.0598092
0.0602316
0.0606592
0.061092
0.0615301
0.0619736
0.0624225
0.062877
0.063337
0.0638027
0.064274
0.0647512
0.0652342
0.0657231
0.0662181
0.0667191
0.0672262
0.0677396
0.0682593
0.0687853
0.0693178
0.0698568
0.0704025
0.0709548
0.0715139
0.0720799
0.0726528
0.0732327
0.0738198
0.0744141
0.0750156
0.0756245
0.0762409
0.0768649
0.0774965
0.0781359
0.0787831
0.0794382
0.0801014
0.0807727
0.0814523
0.0821401
0.0828365
0.0835413
0.0842549
0.0849771
0.0857083
0.0864484
0.0871975
0.0879559
0.0887236
0.0895007
0.0902873
0.0910835
0.0918896
0.0927055
0.0935314
0.0943675
0.0952138
0.0960705
0.0969378
0.0978156
0.0987042
0.0996038
0.100514
0.101436
0.102369
0.103314
0.10427
0.105237
0.106217
0.107209
0.108213
0.109229
0.110257
0.111299
0.112353
0.11342
0.1145
0.115593
0.1167
0.11782
0.118954
0.120102
0.121264
0.12244
0.123631
0.124836
0.126056
0.127291
0.128542
0.129807
0.131088
0.132385
0.133698
0.135026
0.136372
0.137733
0.139112
0.140507
0.141919
0.143349
0.144796
0.146261
0.147744
0.149245
0.150758
0.152273
0.153788
0.155303
0.156818
0.158333
0.159848
0.161364
0.162879
0.164394
0.165909
0.167424
0.168939
0.170455
0.17197
0.173485
0.175
0.176515
0.17803
0.179545
0.181061
0.182576
0.184091
0.185606
0.187121
0.188636
0.190152
0.191667
0.193182
0.194697
0.196212
0.197727
0.199242
0.200758
0.202273
0.203788
0.205303
0.206818
0.208333
0.209848
0.211364
0.212879
0.214394
0.215909
0.217424
0.218939
0.220455
0.22197
0.223485
0.225
0.226515
0.22803
0.229545
0.231061
0.232576
0.234091
0.235606
0.237121
0.238636
0.240152
0.241667
0.243182
0.244697
0.246212
0.247727
0.249242
0.250758
0.252273
0.253788
0.255303
0.256818
0.258333
0.259848
0.261364
0.262879
0.264394
0.265909
0.267424
0.268939
0.270455
0.27197
0.273485
0.275
0.276515
0.27803
0.279545
0.281061
0.282576
0.284091
0.285606
0.287121
0.288636
0.290152
0.291667
0.293182
0.294697
0.296212
0.297727
0.299242
0.300758
0.302273
0.303788
0.305303
0.306818
0.308333
0.309848
0.311364
0.312879
0.314394
0.315909
0.317424
0.318939
0.320455
0.32197
0.323485
0.325
0.326515
0.32803
0.329545
0.331061
0.332576
0.334091
0.335606
0.337121
0.338636
0.340152
0.341667
0.343182
0.344697
0.346212
0.347727
0.349242
0.350758
0.352273
0.353788
0.355303
0.356818
0.358333
0.359848
0.361364
0.362879
0.364394
0.365909
0.367424
0.368939
0.370455
0.37197
0.373485
0.375
0.376515
0.37803
0.379545
0.381061
0.382576
0.384091
0.385606
0.387121
0.388636
0.390152
0.391667
0.393182
0.394697
0.396212
0.397727
0.399242
)
;

boundaryField
{
    wall_bottom
    {
        type            calculated;
        value           uniform 0;
    }
    wall_top
    {
        type            calculated;
        value           uniform 0.4;
    }
    front1
    {
        type            cyclic;
    }
    back1
    {
        type            cyclic;
    }
    left1
    {
        type            cyclic;
    }
    right1
    {
        type            cyclic;
    }
    front2
    {
        type            cyclic;
    }
    back2
    {
        type            cyclic;
    }
    left2
    {
        type            cyclic;
    }
    right2
    {
        type            cyclic;
    }
    front3
    {
        type            cyclic;
    }
    back3
    {
        type            cyclic;
    }
    left3
    {
        type            cyclic;
    }
    right3
    {
        type            cyclic;
    }
}


// ************************************************************************* //
