/*--------------------------------*- C++ -*----------------------------------*\
| =========                 |                                                 |
| \\      /  F ield         | OpenFOAM: The Open Source CFD Toolbox           |
|  \\    /   O peration     | Version:  2.4.x                                 |
|   \\  /    A nd           | Web:      www.OpenFOAM.org                      |
|    \\/     M anipulation  |                                                 |
\*---------------------------------------------------------------------------*/
FoamFile
{
    version     2.0;
    format      ascii;
    class       volScalarField;
    location    "0";
    object      V;
}
// * * * * * * * * * * * * * * * * * * * * * * * * * * * * * * * * * * * * * //

dimensions      [0 3 0 0 0 0 0];

internalField   nonuniform List<scalar> 
463
(
5.45455e-09
5.45455e-09
5.45455e-09
5.45455e-09
5.45455e-09
5.45455e-09
5.45455e-09
5.45455e-09
5.45455e-09
5.45455e-09
5.45455e-09
5.45455e-09
5.45455e-09
5.45455e-09
5.45455e-09
5.45455e-09
5.45455e-09
5.45455e-09
5.45455e-09
5.45455e-09
5.45455e-09
5.45455e-09
5.45455e-09
5.45455e-09
5.45455e-09
5.45455e-09
5.45455e-09
5.45455e-09
5.45455e-09
5.45455e-09
5.45455e-09
5.45455e-09
5.45455e-09
5.45455e-09
5.45455e-09
5.45455e-09
5.45455e-09
5.45455e-09
5.45455e-09
5.45455e-09
5.45455e-09
5.45455e-09
5.45455e-09
5.45455e-09
5.45455e-09
5.45455e-09
5.45455e-09
5.45455e-09
5.45455e-09
5.45455e-09
5.45455e-09
5.45455e-09
5.45455e-09
5.45455e-09
5.45455e-09
5.45455e-09
5.45455e-09
5.45455e-09
5.45455e-09
5.45455e-09
5.45455e-09
5.45455e-09
5.45455e-09
5.45455e-09
5.45455e-09
5.45455e-09
5.45455e-09
5.45455e-09
5.45455e-09
5.45455e-09
5.45455e-09
5.45455e-09
5.45455e-09
5.45455e-09
5.45455e-09
5.45455e-09
5.45455e-09
5.45455e-09
5.45455e-09
5.45455e-09
5.45455e-09
5.45455e-09
5.45455e-09
5.45455e-09
5.45455e-09
5.45455e-09
5.45455e-09
5.45455e-09
5.45455e-09
5.45455e-09
5.45455e-09
5.45455e-09
5.45455e-09
5.45455e-09
5.45455e-09
5.45455e-09
5.45455e-09
5.45455e-09
5.45455e-09
5.45455e-09
5.45455e-09
5.45455e-09
5.45455e-09
5.45455e-09
5.45455e-09
5.45455e-09
5.45455e-09
5.45455e-09
5.45455e-09
5.45455e-09
5.45455e-09
5.45455e-09
5.45455e-09
5.45455e-09
5.45455e-09
5.45455e-09
5.45455e-09
5.45455e-09
5.45455e-09
5.45455e-09
5.45455e-09
5.45455e-09
5.45455e-09
5.45455e-09
5.45455e-09
5.45455e-09
5.45455e-09
5.45455e-09
5.45455e-09
5.45455e-09
5.45455e-09
5.45455e-09
5.45455e-09
5.45455e-09
5.45455e-09
5.45455e-09
5.45455e-09
5.45455e-09
5.45455e-09
5.45455e-09
5.45455e-09
5.45455e-09
5.45455e-09
5.45455e-09
5.45455e-09
5.45455e-09
5.45455e-09
5.45455e-09
5.45455e-09
5.45455e-09
5.45455e-09
5.45455e-09
5.45455e-09
5.45455e-09
5.45455e-09
5.45455e-09
5.45455e-09
5.45455e-09
5.45455e-09
5.45455e-09
5.45455e-09
5.45455e-09
5.45455e-09
5.45455e-09
5.45455e-09
5.43693e-09
5.50363e-09
5.57115e-09
5.63949e-09
5.70867e-09
5.7787e-09
5.84959e-09
5.92135e-09
5.99399e-09
6.06752e-09
6.14195e-09
6.2173e-09
6.29357e-09
6.37077e-09
6.44892e-09
6.52804e-09
6.60812e-09
6.68918e-09
6.77124e-09
6.8543e-09
6.93839e-09
7.0235e-09
7.10966e-09
7.19688e-09
7.28517e-09
7.37454e-09
7.465e-09
7.55658e-09
7.64928e-09
7.74311e-09
7.8381e-09
7.93426e-09
8.03159e-09
8.13011e-09
8.22985e-09
8.33081e-09
8.433e-09
8.53645e-09
8.64117e-09
8.74718e-09
8.85448e-09
8.9631e-09
9.07306e-09
9.18436e-09
9.29703e-09
9.41108e-09
9.52653e-09
9.64339e-09
9.76169e-09
9.88144e-09
1.00027e-08
1.01254e-08
1.02496e-08
1.03753e-08
1.05026e-08
1.06314e-08
1.07618e-08
1.08939e-08
1.10275e-08
1.11628e-08
1.12997e-08
1.14383e-08
1.15787e-08
1.17207e-08
1.18645e-08
1.201e-08
1.21574e-08
1.23065e-08
1.24575e-08
1.26103e-08
1.2765e-08
1.29216e-08
1.30801e-08
1.32405e-08
1.3403e-08
1.35674e-08
1.37338e-08
1.39023e-08
1.40728e-08
1.42455e-08
1.44202e-08
1.45971e-08
1.47762e-08
1.49575e-08
1.5141e-08
1.53267e-08
1.55147e-08
1.5705e-08
1.58977e-08
1.60927e-08
1.62901e-08
1.649e-08
1.66923e-08
1.6897e-08
1.71043e-08
1.73141e-08
1.75265e-08
1.77415e-08
1.79592e-08
1.81795e-08
1.84025e-08
1.86283e-08
1.88568e-08
1.90881e-08
1.93223e-08
1.95593e-08
1.97992e-08
2.00421e-08
2.0288e-08
2.05369e-08
2.07888e-08
2.10438e-08
2.1302e-08
2.15633e-08
2.18278e-08
2.20956e-08
2.23666e-08
2.2641e-08
2.29188e-08
2.31999e-08
2.34845e-08
2.37726e-08
2.40642e-08
2.43594e-08
2.46583e-08
2.49607e-08
2.52669e-08
2.55769e-08
2.58907e-08
2.62083e-08
2.65298e-08
2.68552e-08
2.71847e-08
2.72727e-08
2.72727e-08
2.72727e-08
2.72727e-08
2.72727e-08
2.72727e-08
2.72727e-08
2.72727e-08
2.72727e-08
2.72727e-08
2.72727e-08
2.72727e-08
2.72727e-08
2.72727e-08
2.72727e-08
2.72727e-08
2.72727e-08
2.72727e-08
2.72727e-08
2.72727e-08
2.72727e-08
2.72727e-08
2.72727e-08
2.72727e-08
2.72727e-08
2.72727e-08
2.72727e-08
2.72727e-08
2.72727e-08
2.72727e-08
2.72727e-08
2.72727e-08
2.72727e-08
2.72727e-08
2.72727e-08
2.72727e-08
2.72727e-08
2.72727e-08
2.72727e-08
2.72727e-08
2.72727e-08
2.72727e-08
2.72727e-08
2.72727e-08
2.72727e-08
2.72727e-08
2.72727e-08
2.72727e-08
2.72727e-08
2.72727e-08
2.72727e-08
2.72727e-08
2.72727e-08
2.72727e-08
2.72727e-08
2.72727e-08
2.72727e-08
2.72727e-08
2.72727e-08
2.72727e-08
2.72727e-08
2.72727e-08
2.72727e-08
2.72727e-08
2.72727e-08
2.72727e-08
2.72727e-08
2.72727e-08
2.72727e-08
2.72727e-08
2.72727e-08
2.72727e-08
2.72727e-08
2.72727e-08
2.72727e-08
2.72727e-08
2.72727e-08
2.72727e-08
2.72727e-08
2.72727e-08
2.72727e-08
2.72727e-08
2.72727e-08
2.72727e-08
2.72727e-08
2.72727e-08
2.72727e-08
2.72727e-08
2.72727e-08
2.72727e-08
2.72727e-08
2.72727e-08
2.72727e-08
2.72727e-08
2.72727e-08
2.72727e-08
2.72727e-08
2.72727e-08
2.72727e-08
2.72727e-08
2.72727e-08
2.72727e-08
2.72727e-08
2.72727e-08
2.72727e-08
2.72727e-08
2.72727e-08
2.72727e-08
2.72727e-08
2.72727e-08
2.72727e-08
2.72727e-08
2.72727e-08
2.72727e-08
2.72727e-08
2.72727e-08
2.72727e-08
2.72727e-08
2.72727e-08
2.72727e-08
2.72727e-08
2.72727e-08
2.72727e-08
2.72727e-08
2.72727e-08
2.72727e-08
2.72727e-08
2.72727e-08
2.72727e-08
2.72727e-08
2.72727e-08
2.72727e-08
2.72727e-08
2.72727e-08
2.72727e-08
2.72727e-08
2.72727e-08
2.72727e-08
2.72727e-08
2.72727e-08
2.72727e-08
2.72727e-08
2.72727e-08
2.72727e-08
2.72727e-08
2.72727e-08
2.72727e-08
2.72727e-08
2.72727e-08
2.72727e-08
2.72727e-08
2.72727e-08
2.72727e-08
2.72727e-08
2.72727e-08
2.72727e-08
2.72727e-08
2.72727e-08
2.72727e-08
2.72727e-08
2.72727e-08
2.72727e-08
2.72727e-08
2.72727e-08
2.72727e-08
)
;

boundaryField
{
    wall_bottom
    {
        type            calculated;
        value           uniform 1.8e-05;
    }
    wall_top
    {
        type            calculated;
        value           uniform 1.8e-05;
    }
    front1
    {
        type            cyclic;
    }
    back1
    {
        type            cyclic;
    }
    left1
    {
        type            cyclic;
    }
    right1
    {
        type            cyclic;
    }
    front2
    {
        type            cyclic;
    }
    back2
    {
        type            cyclic;
    }
    left2
    {
        type            cyclic;
    }
    right2
    {
        type            cyclic;
    }
    front3
    {
        type            cyclic;
    }
    back3
    {
        type            cyclic;
    }
    left3
    {
        type            cyclic;
    }
    right3
    {
        type            cyclic;
    }
}


// ************************************************************************* //
