/*--------------------------------*- C++ -*----------------------------------*\
| =========                 |                                                 |
| \\      /  F ield         | OpenFOAM: The Open Source CFD Toolbox           |
|  \\    /   O peration     | Version:  2.4.0                                 |
|   \\  /    A nd           | Web:      www.OpenFOAM.org                      |
|    \\/     M anipulation  |                                                 |
\*---------------------------------------------------------------------------*/
FoamFile
{
    version     2.0;
    format      ascii;
    class       volScalarField;
    location    "0";
    object      p;
}
// * * * * * * * * * * * * * * * * * * * * * * * * * * * * * * * * * * * * * //

dimensions      [0 2 -2 0 0 0 0];

internalField   nonuniform List<scalar> 
463
(
-0.00896787
-0.00896787
-0.00896787
-0.00896787
-0.00896787
-0.00896787
-0.00896787
-0.00896787
-0.00896787
-0.00896787
-0.00896787
-0.00896787
-0.00896787
-0.00896787
-0.00896787
-0.00899638
-0.0090669
-0.00953093
-0.0107361
-0.0123931
-0.0156798
-0.0217302
-0.0263437
-0.0301642
-0.0334967
-0.0370883
-0.0398729
-0.0425866
-0.0444442
-0.0467581
-0.0487903
-0.0501834
-0.0505573
-0.0573282
-0.0576247
-0.0587295
-0.0603387
-0.062131
-0.0635098
-0.0654857
-0.0674677
-0.0699057
-0.0721393
-0.07478
-0.0780688
-0.0824965
-0.0851538
-0.0879541
-0.0921431
-0.0942016
-0.096198
-0.100202
-0.102741
-0.104881
-0.10836
-0.111048
-0.11333
-0.115367
-0.117734
-0.120073
-0.122597
-0.12447
-0.127213
-0.129816
-0.13161
-0.132091
-0.146084
-0.146562
-0.148343
-0.150927
-0.153653
-0.155516
-0.15803
-0.160362
-0.162729
-0.164772
-0.166754
-0.168699
-0.170869
-0.172732
-0.177675
-0.187125
-0.191891
-0.19652
-0.205561
-0.209926
-0.210641
-0.210692
-0.210692
-0.210692
-0.210692
-0.210692
-0.210692
-0.210692
-0.210692
-0.210692
-0.210692
-0.210692
-0.210692
-0.210692
-0.210692
-0.210692
-0.210692
-0.210692
-0.210692
-0.210692
-0.210692
-0.210692
-0.210692
-0.210692
-0.210692
-0.210692
-0.210692
-0.210692
-0.210692
-0.210692
-0.210692
-0.210692
-0.210692
-0.210692
-0.210692
-0.210692
-0.210692
-0.210692
-0.210692
-0.210692
-0.210692
-0.210692
-0.210692
-0.210692
-0.210692
-0.210692
-0.147265
-0.145181
-0.137418
-0.126144
-0.114178
-0.105883
-0.0946023
-0.0840189
-0.0729546
-0.0633099
-0.0530774
-0.0417518
-0.0278331
-0.0195226
-0.0109058
0.00192357
0.008294
0.0149771
0.0287413
0.0386747
0.0495966
0.068352
0.0844251
0.0997863
0.114914
0.130556
0.140707
0.149645
0.155199
0.160507
0.164414
0.167059
0.167769
0.165285
0.165285
0.165132
0.164623
0.164179
0.164123
0.163791
0.163573
0.163521
0.16352
0.163519
0.163542
0.163608
0.163683
0.163688
0.163697
0.163702
0.163706
0.163711
0.163714
0.163709
0.163702
0.1637
0.163695
0.163693
0.163697
0.163703
0.163702
0.163695
0.163694
0.163697
0.163699
0.163699
0.1637
0.163699
0.163698
0.163698
0.163699
0.163699
0.163698
0.163698
0.163698
0.163698
0.163698
0.163698
0.163698
0.163698
0.163698
0.163698
0.163698
0.163698
0.163698
0.163698
0.163698
0.163698
0.163698
0.163698
0.163698
0.163698
0.163698
0.163698
0.163698
0.163698
0.163698
0.163698
0.163698
0.163698
0.163698
0.163698
0.163698
0.163698
0.163698
0.163698
0.163698
0.163698
0.163698
0.163698
0.163698
0.163698
0.163698
0.163698
0.163698
0.163698
0.163698
0.163698
0.163698
0.163698
0.163698
0.163698
0.163698
0.163698
0.163698
0.163698
0.163698
0.163698
0.163698
0.163698
0.163698
0.163698
0.163698
0.163698
0.163698
0.163698
0.163698
0.163698
0.163698
0.163698
0.163698
0.163698
0.163698
0.163698
0.163698
0.163698
0.163698
0.163698
0.163698
0.163698
0.163698
0.163698
0.163698
0.163698
0.163698
0.163698
0.163698
0.163698
0.163698
0.163698
0.163698
0.163698
0.163698
0.163698
0.163698
0.163698
0.163698
0.163698
0.163698
0.163698
0.163698
0.163698
0.163698
0.163698
0.163698
0.163698
0.163698
0.163698
0.163698
0.163698
0.163698
0.163698
0.163698
0.163698
0.163698
0.163698
0.163698
0.163698
0.163698
0.163698
0.163698
0.163698
0.163698
0.163698
0.163698
0.163698
0.163698
0.163698
0.163698
0.163698
0.163698
0.163698
0.163698
0.163698
0.163698
0.163698
0.163698
0.163698
0.163698
0.163698
0.163698
0.163698
0.163698
0.163698
0.163698
0.163698
0.163698
0.163698
0.163698
0.163698
0.163698
0.163698
0.163698
0.163698
0.163698
0.163698
0.163698
0.163698
0.163698
0.163698
0.163698
0.163698
0.163698
0.163698
0.163698
0.163698
0.163698
0.163698
0.163698
0.163698
0.163698
0.163698
0.163698
0.163698
0.163698
0.163698
0.163698
0.163698
0.163698
0.163698
0.163698
0.163698
0.163698
0.163698
0.163698
0.163698
0.163698
0.163698
0.163698
0.163698
0.163698
0.163698
0.163698
0.163698
0.163698
0.163698
0.163698
0.163698
0.163698
0.163698
0.163698
0.163698
0.163698
0.163698
0.163698
0.163698
0.163698
0.163698
0.163698
0.163698
0.163698
0.163698
0.163698
0.163698
0.163698
0.163698
0.163698
0.163698
0.163698
0.163698
0.163698
0.163698
0.163698
0.163698
0.163698
0.163698
0.163698
0.163698
0.163698
0.163698
0.163698
0.163698
0.163698
0.163698
0.163698
0.163698
0.163698
0.163698
0.163698
0.163698
0.163698
0.163698
0.163698
0.163698
0.163698
0.163698
0.163698
0.163698
0.163698
0.163698
0.163698
0.163698
0.163698
0.163698
0.163698
0.163698
0.163698
0.163698
0.163698
0.163698
0.163698
)
;

boundaryField
{
    wall_bottom
    {
        type            fixedFluxPressure;
        gradient        uniform 0;
        value           uniform -0.00896787;
    }
    wall_top
    {
        type            fixedValue;
        value           uniform 0;
    }
    front1
    {
        type            cyclic;
    }
    back1
    {
        type            cyclic;
    }
    left1
    {
        type            cyclic;
    }
    right1
    {
        type            cyclic;
    }
    front2
    {
        type            cyclic;
    }
    back2
    {
        type            cyclic;
    }
    left2
    {
        type            cyclic;
    }
    right2
    {
        type            cyclic;
    }
    front3
    {
        type            cyclic;
    }
    back3
    {
        type            cyclic;
    }
    left3
    {
        type            cyclic;
    }
    right3
    {
        type            cyclic;
    }
}


// ************************************************************************* //
