/*--------------------------------*- C++ -*----------------------------------*\
| =========                 |                                                 |
| \\      /  F ield         | OpenFOAM: The Open Source CFD Toolbox           |
|  \\    /   O peration     | Version:  2.4.0                                 |
|   \\  /    A nd           | Web:      www.OpenFOAM.org                      |
|    \\/     M anipulation  |                                                 |
\*---------------------------------------------------------------------------*/
FoamFile
{
    version     2.0;
    format      ascii;
    class       volScalarField;
    location    "0";
    object      Ksl;
}
// * * * * * * * * * * * * * * * * * * * * * * * * * * * * * * * * * * * * * //

dimensions      [1 -3 -1 0 0 0 0];

internalField   nonuniform List<scalar> 
635
(
3.53782e+08
3.47982e+08
3.30635e+08
3.01993e+08
2.52176e+08
2.20434e+08
1.9462e+08
1.65437e+08
1.39538e+08
1.08231e+08
9.20328e+07
7.3668e+07
6.12805e+07
5.01533e+07
4.88714e+07
4.833e+07
4.83268e+07
5.05111e+07
5.44707e+07
5.76296e+07
5.90869e+07
6.13723e+07
6.3898e+07
6.46494e+07
5.96933e+07
5.39239e+07
4.71873e+07
4.28772e+07
4.24566e+07
4.3339e+07
4.41173e+07
4.24034e+07
4.03076e+07
3.74982e+07
3.47191e+07
3.07843e+07
2.40017e+07
2.00827e+07
1.77091e+07
1.69155e+07
1.57537e+07
1.59688e+07
1.66121e+07
1.76744e+07
1.95328e+07
2.08426e+07
2.20446e+07
2.35113e+07
2.49422e+07
2.69381e+07
2.85117e+07
3.02959e+07
3.18111e+07
3.43788e+07
3.65895e+07
3.84357e+07
4.01163e+07
4.03091e+07
4.02496e+07
4.01071e+07
3.97889e+07
3.87428e+07
3.72e+07
3.59105e+07
3.24677e+07
2.89056e+07
2.48259e+07
2.27886e+07
2.32181e+07
2.47827e+07
2.61628e+07
2.84378e+07
3.02371e+07
3.22101e+07
3.39194e+07
3.59582e+07
3.90839e+07
4.08787e+07
4.19657e+07
4.23291e+07
3.8475e+07
3.82825e+07
3.77068e+07
3.67563e+07
3.50878e+07
3.38487e+07
3.26493e+07
3.11423e+07
2.9624e+07
2.74156e+07
2.55152e+07
2.33606e+07
2.15822e+07
1.87267e+07
1.64013e+07
1.44627e+07
1.26567e+07
1.22654e+07
1.1991e+07
1.18732e+07
1.20516e+07
1.28363e+07
1.40434e+07
1.51327e+07
1.8444e+07
2.19072e+07
2.59603e+07
2.94226e+07
3.07136e+07
3.17457e+07
3.26561e+07
3.35114e+07
3.40283e+07
3.4485e+07
3.48064e+07
3.50561e+07
3.52773e+07
3.53991e+07
3.54729e+07
3.54975e+07
4.01195e+07
4.0196e+07
4.04249e+07
4.08028e+07
4.14519e+07
4.17726e+07
4.19323e+07
4.2033e+07
4.20269e+07
4.18227e+07
4.13171e+07
4.0744e+07
4.03093e+07
3.97326e+07
3.93708e+07
3.90635e+07
3.86593e+07
3.80574e+07
3.70466e+07
3.62588e+07
3.58071e+07
3.49072e+07
3.37123e+07
3.29266e+07
3.18866e+07
3.09081e+07
2.97548e+07
2.84089e+07
2.76109e+07
2.66688e+07
2.58378e+07
2.46626e+07
2.37812e+07
2.2848e+07
2.20618e+07
2.11645e+07
1.98375e+07
1.90771e+07
1.86165e+07
1.84626e+07
2.96669e+06
2.9659e+06
2.96353e+06
2.95964e+06
2.95333e+06
2.95475e+06
2.96181e+06
2.97445e+06
2.99126e+06
3.02309e+06
3.06295e+06
3.10812e+06
3.13677e+06
3.15543e+06
3.14636e+06
3.13664e+06
3.12103e+06
3.0891e+06
3.03466e+06
2.99204e+06
2.97186e+06
2.9391e+06
2.90087e+06
2.88511e+06
2.92545e+06
2.97478e+06
3.04723e+06
3.34735e+06
3.65486e+06
4.10161e+06
4.49567e+06
4.49695e+06
4.33779e+06
4.05265e+06
3.73097e+06
3.21313e+06
2.25695e+06
1.70262e+06
1.36689e+06
1.25463e+06
0
0
0
0
0
0
0
0
0
0
0
0
0
0
0
0
0
0
0
0
0
0
0
0
0
0
0
0
0
0
0
0
0
0
0
0
0
0
0
0
0
0
0
0
0
0
0
0
0
0
0
0
0
0
0
0
0
0
0
0
0
0
0
0
0
0
0
0
0
0
0
0
0
0
0
0
0
0
0
0
0
0
0
0
0
0
0
0
0
0
0
0
0
0
0
0
0
0
0
0
0
0
0
0
0
0
0
0
0
0
0
0
0
0
0
0
0
0
0
0
0
0
0
0
0
0
0
0
0
0
0
0
0
0
0
0
0
0
0
0
0
0
0
0
0
0
0
0
0
0
0
0
0
0
0
0
0
0
0
0
0
0
0
0
0
0
0
0
0
0
0
0
0
0
0
0
0
0
0
0
0
0
0
0
0
0
0
0
0
0
0
0
0
0
0
0
0
0
0
0
0
0
0
0
0
0
0
0
0
0
0
0
0
0
0
0
0
0
0
0
0
0
0
0
0
0
0
0
0
0
0
0
0
0
0
0
0
0
0
0
0
0
0
0
0
0
0
0
0
0
0
0
0
0
0
0
0
0
0
0
0
0
0
0
0
0
0
0
0
0
0
0
0
0
0
0
0
0
0
0
0
0
0
0
0
0
0
0
0
0
0
0
0
0
0
0
0
0
0
0
0
0
0
0
0
0
0
0
0
0
0
0
0
0
0
0
0
0
0
0
0
0
0
0
0
0
0
0
0
0
0
0
0
0
0
0
0
0
0
0
0
0
0
0
0
0
0
0
0
0
0
0
0
0
0
0
0
0
0
0
0
0
0
0
0
0
0
0
0
0
0
0
0
0
0
0
0
0
0
0
0
0
0
0
0
0
0
0
0
0
0
0
0
0
0
0
0
0
0
0
0
0
0
0
0
0
0
0
0
0
0
0
0
0
0
0
0
0
0
0
0
0
0
0
0
0
0
0
0
0
0
0
0
0
0
)
;

boundaryField
{
    wall_bottom
    {
        type            zeroGradient;
    }
    wall_top
    {
        type            zeroGradient;
    }
    front1
    {
        type            cyclic;
    }
    back1
    {
        type            cyclic;
    }
    left1
    {
        type            cyclic;
    }
    right1
    {
        type            cyclic;
    }
    front2
    {
        type            cyclic;
    }
    back2
    {
        type            cyclic;
    }
    left2
    {
        type            cyclic;
    }
    right2
    {
        type            cyclic;
    }
    front3
    {
        type            cyclic;
    }
    back3
    {
        type            cyclic;
    }
    left3
    {
        type            cyclic;
    }
    right3
    {
        type            cyclic;
    }
}


// ************************************************************************* //
