/*--------------------------------*- C++ -*----------------------------------*\
| =========                 |                                                 |
| \\      /  F ield         | OpenFOAM: The Open Source CFD Toolbox           |
|  \\    /   O peration     | Version:  2.4.0                                 |
|   \\  /    A nd           | Web:      www.OpenFOAM.org                      |
|    \\/     M anipulation  |                                                 |
\*---------------------------------------------------------------------------*/
FoamFile
{
    version     2.0;
    format      ascii;
    class       volScalarField;
    location    "0";
    object      Ksl;
}
// * * * * * * * * * * * * * * * * * * * * * * * * * * * * * * * * * * * * * //

dimensions      [1 -3 -1 0 0 0 0];

internalField   nonuniform List<scalar> 
463
(
3.53424e+08
3.44964e+08
3.13449e+08
2.67789e+08
2.21129e+08
1.91686e+08
1.53787e+08
1.20971e+08
9.44625e+07
7.3668e+07
5.80843e+07
4.95893e+07
4.83981e+07
4.82798e+07
5.06303e+07
5.58179e+07
5.83968e+07
6.03977e+07
6.3857e+07
6.37737e+07
5.88276e+07
4.90277e+07
4.39426e+07
4.24566e+07
4.34558e+07
4.36835e+07
4.13181e+07
3.77867e+07
3.46438e+07
2.86598e+07
2.24341e+07
1.8122e+07
1.69645e+07
1.5767e+07
1.60807e+07
1.72495e+07
1.895e+07
2.08104e+07
2.219e+07
2.41329e+07
2.60403e+07
2.82757e+07
3.02959e+07
3.24957e+07
3.50066e+07
3.81559e+07
3.98095e+07
4.03196e+07
4.01888e+07
3.99878e+07
3.91889e+07
3.72703e+07
3.52626e+07
3.19222e+07
2.59286e+07
2.32674e+07
2.32181e+07
2.49897e+07
2.71207e+07
2.9436e+07
3.20125e+07
3.39653e+07
3.6938e+07
3.98018e+07
4.17766e+07
4.23067e+07
3.84631e+07
3.81824e+07
3.71365e+07
3.56113e+07
3.38807e+07
3.25006e+07
3.04902e+07
2.84342e+07
2.58002e+07
2.33606e+07
2.08172e+07
1.8063e+07
1.47576e+07
1.29903e+07
1.2244e+07
1.19408e+07
1.19226e+07
1.25017e+07
1.3984e+07
1.57525e+07
1.89733e+07
2.48349e+07
2.85292e+07
3.07136e+07
3.18823e+07
3.30782e+07
3.38148e+07
3.44408e+07
3.48149e+07
3.51258e+07
3.5326e+07
3.54601e+07
3.5496e+07
4.01243e+07
4.02358e+07
4.06517e+07
4.12488e+07
4.17682e+07
4.19439e+07
4.20465e+07
4.19691e+07
4.1393e+07
4.0744e+07
4.01518e+07
3.96266e+07
3.91136e+07
3.87452e+07
3.80246e+07
3.67106e+07
3.60379e+07
3.5291e+07
3.37552e+07
3.27222e+07
3.17341e+07
3.00825e+07
2.87679e+07
2.76109e+07
2.65441e+07
2.53243e+07
2.41685e+07
2.2941e+07
2.20407e+07
2.07484e+07
1.95334e+07
1.86967e+07
1.84721e+07
2.96664e+06
2.96549e+06
2.9612e+06
2.95529e+06
2.95456e+06
2.96299e+06
2.98106e+06
3.00644e+06
3.05697e+06
3.10812e+06
3.14244e+06
3.15346e+06
3.13831e+06
3.12454e+06
3.08736e+06
3.01648e+06
2.98152e+06
2.95307e+06
2.90173e+06
2.89203e+06
2.93279e+06
3.02218e+06
3.26219e+06
3.65486e+06
4.16072e+06
4.55848e+06
4.42541e+06
4.08276e+06
3.72219e+06
2.91374e+06
2.03522e+06
1.42529e+06
1.26157e+06
0
0
0
0
0
0
0
0
0
0
0
0
0
0
0
0
0
0
0
0
0
0
0
0
0
0
0
0
0
0
0
0
0
0
0
0
0
0
0
0
0
0
0
0
0
0
0
0
0
0
0
0
0
0
0
0
0
0
0
0
0
0
0
0
0
0
0
0
0
0
0
0
0
0
0
0
0
0
0
0
0
0
0
0
0
0
0
0
0
0
0
0
0
0
0
0
0
0
0
0
0
0
0
0
0
0
0
0
0
0
0
0
0
0
0
0
0
0
0
0
0
0
0
0
0
0
0
0
0
0
0
0
0
0
0
0
0
0
0
0
0
0
0
0
0
0
0
0
0
0
0
0
0
0
0
0
0
0
0
0
0
0
0
0
0
0
0
0
0
0
0
0
0
0
0
0
0
0
0
0
0
0
0
0
0
0
0
0
0
0
0
0
0
0
0
0
0
0
0
0
0
0
0
0
0
0
0
0
0
0
0
0
0
0
0
0
0
0
0
0
0
0
0
0
0
0
0
0
0
0
0
0
0
0
0
0
0
0
0
0
0
0
0
0
0
0
0
0
0
0
0
0
0
0
0
0
0
0
0
0
0
0
0
0
0
0
0
0
0
0
0
0
0
0
0
0
0
0
0
0
0
0
0
0
0
0
0
0
0
0
0
0
0
0
0
0
0
0
)
;

boundaryField
{
    wall_bottom
    {
        type            zeroGradient;
    }
    wall_top
    {
        type            zeroGradient;
    }
    front1
    {
        type            cyclic;
    }
    back1
    {
        type            cyclic;
    }
    left1
    {
        type            cyclic;
    }
    right1
    {
        type            cyclic;
    }
    front2
    {
        type            cyclic;
    }
    back2
    {
        type            cyclic;
    }
    left2
    {
        type            cyclic;
    }
    right2
    {
        type            cyclic;
    }
    front3
    {
        type            cyclic;
    }
    back3
    {
        type            cyclic;
    }
    left3
    {
        type            cyclic;
    }
    right3
    {
        type            cyclic;
    }
}


// ************************************************************************* //
