/*--------------------------------*- C++ -*----------------------------------*\
| =========                 |                                                 |
| \\      /  F ield         | OpenFOAM: The Open Source CFD Toolbox           |
|  \\    /   O peration     | Version:  2.4.x                                 |
|   \\  /    A nd           | Web:      www.OpenFOAM.org                      |
|    \\/     M anipulation  |                                                 |
\*---------------------------------------------------------------------------*/
FoamFile
{
    version     2.0;
    format      ascii;
    class       volVectorField;
    location    "0";
    object      impParticleForces;
}
// * * * * * * * * * * * * * * * * * * * * * * * * * * * * * * * * * * * * * //

dimensions      [1 1 -2 0 0 0 0];

internalField   nonuniform List<vector> 
600
(
(4.83555e-05 -3.0799e-08 9.18078e-08)
(4.76159e-05 -3.75737e-08 1.38008e-07)
(4.69893e-05 -4.2955e-08 1.94796e-07)
(4.66859e-05 -4.41014e-08 2.51034e-07)
(4.65506e-05 -4.25819e-08 2.80297e-07)
(4.63782e-05 -4.30029e-08 2.82719e-07)
(4.64272e-05 -4.80059e-08 2.61651e-07)
(4.63459e-05 -5.45546e-08 2.21493e-07)
(4.62119e-05 -5.12109e-08 1.80001e-07)
(4.62007e-05 -4.00602e-08 1.44165e-07)
(4.58876e-05 4.21615e-08 8.35282e-08)
(4.57732e-05 1.2567e-07 7.62668e-08)
(4.54059e-05 2.26743e-07 7.21365e-08)
(4.46795e-05 3.01462e-07 1.28489e-07)
(4.4353e-05 2.77958e-07 3.84041e-07)
(4.55287e-05 1.99503e-07 9.48796e-07)
(5.18839e-05 1.59997e-07 2.53277e-06)
(7.36608e-05 3.69039e-07 5.59831e-06)
(6.81329e-05 4.19073e-07 5.71209e-06)
(3.20325e-05 2.03077e-07 2.72708e-06)
(5.42502e-06 3.4397e-08 4.61887e-07)
(2.93975e-06 1.86393e-08 2.5029e-07)
(1.06227e-06 6.73531e-09 9.04424e-08)
(3.14983e-07 1.99713e-09 2.68177e-08)
(1.00928e-07 6.39925e-10 8.59298e-09)
(3.83996e-08 2.4347e-10 3.26935e-09)
(1.16511e-08 7.38727e-11 9.91973e-10)
(3.468e-09 2.19887e-11 2.95266e-10)
(1.34346e-09 8.51814e-12 1.14383e-10)
(4.86507e-10 3.08467e-12 4.14214e-11)
(8.22962e-11 5.21796e-13 7.00673e-12)
(4.45953e-11 2.82754e-13 3.79686e-12)
(1.61144e-11 1.02173e-13 1.37199e-12)
(4.77812e-12 3.02954e-14 4.06811e-13)
(1.53098e-12 9.70718e-15 1.30349e-13)
(5.82479e-13 3.69319e-15 4.95926e-14)
(1.76728e-13 1.12054e-15 1.50466e-14)
(5.26016e-14 3.33519e-16 4.47853e-15)
(2.03765e-14 1.29197e-16 1.73487e-15)
(7.37847e-15 4.67829e-17 6.28208e-16)
(1.24796e-15 7.91265e-18 1.06252e-16)
(6.76227e-16 4.28761e-18 5.75745e-17)
(2.4433e-16 1.54918e-18 2.08025e-17)
(7.2437e-17 4.59289e-19 6.16738e-18)
(2.32067e-17 1.47143e-19 1.97586e-18)
(8.82803e-18 5.59745e-20 7.51631e-19)
(2.67793e-18 1.69795e-20 2.28004e-19)
(7.96795e-19 5.05211e-21 6.78405e-20)
(3.08386e-19 1.95534e-21 2.62566e-20)
(1.1127e-19 7.05522e-22 9.4739e-21)
(1.77423e-20 1.12506e-22 1.5108e-21)
(9.96226e-21 6.31725e-23 8.48315e-22)
(3.96372e-21 2.51348e-23 3.37524e-22)
(1.21088e-21 7.67849e-24 1.03111e-22)
(3.93047e-22 2.49243e-24 3.34699e-23)
(1.38188e-22 8.76295e-25 1.17674e-23)
(4.49674e-23 2.85154e-25 3.82923e-24)
(1.34662e-23 8.53943e-26 1.14673e-24)
(4.81451e-24 3.0531e-26 4.09991e-25)
(1.80474e-24 1.14447e-26 1.53689e-25)
(3.83081e-25 2.42932e-27 3.26229e-26)
(1.4917e-25 9.45968e-28 1.27033e-26)
(5.87243e-26 3.72407e-28 5.00099e-27)
(1.83226e-26 1.16197e-28 1.56039e-27)
(5.62261e-27 3.56571e-29 4.78835e-28)
(1.99299e-27 1.26391e-29 1.69728e-28)
(6.45708e-28 4.09496e-30 5.49904e-29)
(1.9724e-28 1.25088e-30 1.6798e-29)
(7.15201e-29 4.53576e-31 6.09106e-30)
(2.61778e-29 1.66019e-31 2.22946e-30)
(6.60214e-30 4.18709e-32 5.62284e-31)
(2.11796e-30 1.34322e-32 1.80382e-31)
(9.11898e-31 5.78337e-33 7.76651e-32)
(2.85353e-31 1.80975e-33 2.43033e-32)
(7.94718e-32 5.04025e-34 6.76861e-33)
(3.19124e-32 2.02396e-34 2.718e-33)
(1.01246e-32 6.42129e-35 8.62332e-34)
(3.16241e-33 2.00571e-35 2.6935e-34)
(1.10254e-33 6.99271e-36 9.39064e-35)
(3.50766e-34 2.22471e-36 2.9876e-35)
(1.06265e-34 6.73982e-37 9.05108e-36)
(3.17222e-35 2.01198e-37 2.70196e-36)
(1.27648e-35 8.09612e-38 1.08725e-36)
(4.44082e-36 2.81663e-38 3.78253e-37)
(1.19067e-36 7.55204e-39 1.01419e-37)
(4.9131e-37 3.11624e-39 4.1849e-38)
(1.42836e-37 9.05976e-40 1.21666e-38)
(4.38553e-38 2.78165e-40 3.73558e-39)
(1.73005e-38 1.09734e-40 1.47367e-39)
(5.66024e-39 3.5902e-41 4.82146e-40)
(1.29767e-39 8.23106e-42 1.10539e-40)
(4.68569e-40 2.97211e-42 3.99141e-41)
(2.01432e-40 1.27768e-42 1.71587e-41)
(6.24119e-41 3.9588e-43 5.31651e-42)
(1.60697e-41 1.01932e-43 1.36891e-42)
(6.46414e-42 4.10031e-44 5.50656e-43)
(2.35814e-42 1.49582e-44 2.00882e-43)
(7.59692e-43 4.81891e-45 6.4716e-44)
(2.44766e-43 1.55262e-45 2.08511e-44)
(7.56563e-44 4.79917e-46 6.44512e-45)
(1.65958e-44 1.05284e-46 1.41397e-45)
(3.91552e-45 2.48446e-47 3.3368e-46)
(1.82242e-45 1.15637e-47 1.55309e-46)
(5.519e-46 3.50195e-48 4.70337e-47)
(2.04909e-46 1.3002e-48 1.74628e-47)
(5.99801e-47 3.80594e-49 5.11166e-48)
(2.33492e-47 1.48159e-49 1.9899e-48)
(6.34382e-48 4.02544e-50 5.4065e-49)
(2.3043e-48 1.46218e-50 1.96383e-49)
(7.44802e-49 4.7261e-51 6.34757e-50)
(2.39851e-49 1.52198e-51 2.04415e-50)
(5.5157e-50 3.50003e-52 4.70084e-51)
(2.48578e-50 1.57737e-52 2.11854e-51)
(7.9572e-51 5.04934e-53 6.78169e-52)
(2.34746e-51 1.48962e-53 2.00069e-52)
(7.90456e-52 5.01601e-54 6.73694e-53)
(2.83699e-52 1.80028e-54 2.41794e-53)
(9.8968e-53 6.28025e-55 8.43497e-54)
(3.32899e-53 2.1125e-55 2.8373e-54)
(1.09656e-53 6.95859e-56 9.34606e-55)
(3.66269e-54 2.32428e-56 3.12173e-55)
(8.61373e-55 5.46616e-57 7.34161e-56)
(3.26774e-55 2.07368e-57 2.78515e-56)
(7.43338e-56 4.71717e-58 6.33564e-57)
(3.27871e-56 2.08065e-58 2.79454e-57)
(1.28884e-56 8.17891e-59 1.09851e-57)
(3.85761e-57 2.44805e-59 3.28798e-58)
(1.49815e-57 9.50733e-60 1.27693e-58)
(3.17376e-58 2.0141e-60 2.70515e-59)
(1.24934e-58 7.92846e-61 1.06488e-59)
(4.52393e-59 2.87094e-61 3.85599e-60)
(1.0848e-59 6.88429e-62 9.24639e-61)
(4.35618e-60 2.76451e-62 3.71305e-61)
(1.23387e-60 7.83041e-63 1.05171e-61)
(5.23538e-61 3.3225e-63 4.4625e-62)
(1.51476e-61 9.61311e-64 1.29116e-62)
(5.25145e-62 3.33273e-64 4.47625e-63)
(1.28576e-62 8.15985e-65 1.09596e-63)
(5.99717e-63 3.80599e-65 5.11191e-64)
(2.10723e-63 1.33732e-65 1.79618e-64)
(4.39053e-64 2.7864e-66 3.74247e-65)
(1.57484e-64 9.9946e-67 1.3424e-65)
(6.04437e-65 3.83602e-67 5.15225e-66)
(2.16473e-65 1.37383e-67 1.84523e-66)
(4.69794e-66 2.98153e-68 4.00458e-67)
(2.2394e-66 1.42123e-68 1.90889e-67)
(8.90745e-67 5.6531e-69 7.59284e-68)
(1.18431e-67 7.51625e-70 1.00953e-68)
(7.49141e-68 4.75444e-70 6.38584e-69)
(3.31471e-68 2.1037e-70 2.82554e-69)
(6.51108e-70 4.13343e-72 5.55211e-71)
(4.85575e-70 3.08258e-72 4.14059e-71)
(3.09696e-70 1.96605e-72 2.64084e-71)
(5.20932e-71 3.30705e-73 4.44211e-72)
(2.90143e-71 1.84193e-73 2.47412e-72)
(1.09798e-71 6.9703e-74 9.36268e-73)
(2.33567e-72 1.48276e-74 1.99169e-73)
(1.13437e-72 7.20142e-75 9.67313e-74)
(2.60899e-73 1.65629e-75 2.22477e-74)
(7.89519e-74 5.0122e-76 6.73251e-75)
(4.01998e-74 2.55206e-76 3.42799e-75)
(8.57308e-75 5.44254e-77 7.31057e-76)
(2.72962e-75 1.73287e-77 2.32764e-76)
(1.34089e-75 8.51247e-78 1.14342e-76)
(3.211e-76 2.03848e-78 2.73815e-77)
(9.72871e-77 6.17621e-79 8.29609e-78)
(4.20219e-77 2.66774e-79 3.5834e-78)
(1.14248e-77 7.25297e-80 9.74245e-79)
(3.58159e-78 2.27376e-80 3.0542e-79)
(1.39814e-78 8.87608e-81 1.19227e-79)
(3.84951e-79 2.44386e-81 3.28267e-80)
(1.14949e-79 7.29752e-82 9.80225e-81)
(3.41529e-80 2.1682e-82 2.91239e-81)
(1.25453e-80 7.96444e-83 1.0698e-81)
(4.23293e-81 2.6873e-83 3.60964e-82)
(1.28683e-81 8.16952e-84 1.09736e-82)
(3.9264e-82 2.4927e-84 3.34827e-83)
(1.50092e-82 9.5287e-85 1.27992e-83)
(4.88456e-83 3.10101e-85 4.16536e-84)
(1.06218e-83 6.74334e-86 9.0579e-85)
(4.60437e-84 2.92312e-86 3.92644e-85)
(1.68249e-84 1.06815e-86 1.43477e-85)
(3.07306e-85 1.95097e-87 2.62061e-86)
(1.5073e-85 9.5693e-88 1.28538e-86)
(6.29019e-86 3.99342e-88 5.36409e-87)
(9.47591e-87 6.0159e-89 8.08079e-88)
(4.88185e-87 3.09931e-89 4.16311e-88)
(2.02159e-87 1.28344e-89 1.72396e-88)
(3.17181e-88 2.01368e-90 2.70486e-89)
(1.67512e-88 1.06348e-90 1.42851e-89)
(6.47189e-89 4.1088e-91 5.5191e-90)
(9.63406e-90 6.11636e-92 8.21573e-91)
(5.11931e-90 3.25009e-92 4.36565e-91)
(1.706e-90 1.08309e-92 1.45485e-91)
(3.62885e-91 2.30386e-93 3.09463e-92)
(1.985e-91 1.26022e-93 1.69278e-92)
(5.999e-92 3.80861e-94 5.11587e-93)
(1.12879e-92 7.16638e-95 9.62618e-94)
(6.52993e-93 4.14568e-95 5.56865e-94)
(2.05184e-93 1.30266e-95 1.74979e-94)
(2.25556e-94 1.43201e-96 1.92355e-95)
(1.20324e-94 7.63919e-97 1.02614e-95)
(8.51505e-96 5.40723e-98 7.26355e-97)
(1.72946e-96 1.09824e-98 1.47527e-97)
(9.84609e-97 6.25243e-99 8.39896e-98)
(3.45247e-97 2.19238e-99 2.94504e-98)
(5.59172e-98 3.55084e-100 4.76988e-99)
(2.59678e-98 1.649e-100 2.21512e-99)
(1.06552e-98 6.76628e-101 9.08921e-100)
(2.12266e-99 1.34793e-101 1.81069e-100)
(8.80518e-100 5.59143e-102 7.51105e-101)
(2.82222e-100 1.79216e-102 2.40743e-101)
(7.65792e-101 4.86291e-103 6.5324e-102)
(3.38652e-101 2.15049e-103 2.88879e-102)
(8.75362e-102 5.55868e-104 7.46707e-103)
(2.71024e-102 1.72104e-104 2.31191e-103)
(1.17733e-102 7.47622e-105 1.00429e-103)
(2.69861e-103 1.71367e-105 2.30199e-104)
(9.26972e-104 5.88646e-106 7.90735e-105)
(3.9723e-104 2.52249e-106 3.38849e-105)
(8.43266e-105 5.35488e-107 7.19327e-106)
(2.83253e-105 1.7987e-107 2.41621e-106)
(1.03963e-105 6.60183e-108 8.86827e-107)
(2.79188e-106 1.77288e-108 2.38154e-107)
(1.05965e-106 6.72895e-109 9.0391e-108)
(4.06705e-107 2.58265e-109 3.4693e-108)
(9.8469e-108 6.25296e-110 8.39968e-109)
(3.65555e-108 2.32134e-110 3.11829e-109)
(1.12006e-108 7.1126e-111 9.55443e-110)
(3.26168e-109 2.07122e-111 2.7823e-110)
(1.20092e-109 7.62603e-112 1.02441e-110)
(2.66161e-110 1.69017e-112 2.27042e-111)
(9.16816e-111 5.82193e-113 7.82066e-112)
(4.06975e-111 2.58436e-113 3.47159e-112)
(1.331e-111 8.45209e-114 1.13538e-112)
(2.6958e-112 1.71188e-114 2.29959e-113)
(1.31779e-112 8.36821e-115 1.12411e-113)
(4.75597e-113 3.02012e-115 4.05697e-114)
(7.85764e-114 4.98972e-116 6.70275e-115)
(4.16319e-114 2.6437e-116 3.5513e-115)
(1.62104e-114 1.02939e-116 1.38279e-115)
(2.13441e-115 1.35539e-117 1.8207e-116)
(1.2323e-115 7.8253e-118 1.05118e-116)
(5.36863e-116 3.40917e-118 4.57957e-117)
(6.07362e-117 3.85686e-119 5.18095e-118)
(3.71005e-117 2.35595e-119 3.16477e-118)
(1.69449e-117 1.07604e-119 1.44545e-118)
(2.249e-118 1.42815e-120 1.91845e-119)
(1.34079e-118 8.51421e-121 1.14372e-119)
(4.85995e-119 3.08617e-121 4.14567e-120)
(4.81541e-120 3.05788e-122 4.10769e-121)
(2.48067e-120 1.57527e-122 2.11608e-121)
(0 0 0)
(0 0 0)
(0 0 0)
(0 0 0)
(0 0 0)
(0 0 0)
(0 0 0)
(0 0 0)
(0 0 0)
(0 0 0)
(0 0 0)
(0 0 0)
(0 0 0)
(0 0 0)
(0 0 0)
(0 0 0)
(0 0 0)
(0 0 0)
(0 0 0)
(0 0 0)
(0 0 0)
(0 0 0)
(0 0 0)
(0 0 0)
(0 0 0)
(0 0 0)
(0 0 0)
(0 0 0)
(0 0 0)
(0 0 0)
(0 0 0)
(0 0 0)
(0 0 0)
(0 0 0)
(0 0 0)
(0 0 0)
(0 0 0)
(0 0 0)
(0 0 0)
(0 0 0)
(0 0 0)
(0 0 0)
(0 0 0)
(0 0 0)
(0 0 0)
(0 0 0)
(0 0 0)
(0 0 0)
(0 0 0)
(0 0 0)
(0 0 0)
(0 0 0)
(0 0 0)
(0 0 0)
(0 0 0)
(0 0 0)
(0 0 0)
(0 0 0)
(0 0 0)
(0 0 0)
(0 0 0)
(0 0 0)
(0 0 0)
(0 0 0)
(0 0 0)
(0 0 0)
(0 0 0)
(0 0 0)
(0 0 0)
(0 0 0)
(0 0 0)
(0 0 0)
(0 0 0)
(0 0 0)
(0 0 0)
(0 0 0)
(0 0 0)
(0 0 0)
(0 0 0)
(0 0 0)
(0 0 0)
(0 0 0)
(0 0 0)
(0 0 0)
(0 0 0)
(0 0 0)
(0 0 0)
(0 0 0)
(0 0 0)
(0 0 0)
(0 0 0)
(0 0 0)
(0 0 0)
(0 0 0)
(0 0 0)
(0 0 0)
(0 0 0)
(0 0 0)
(0 0 0)
(0 0 0)
(0 0 0)
(0 0 0)
(0 0 0)
(0 0 0)
(0 0 0)
(0 0 0)
(0 0 0)
(0 0 0)
(0 0 0)
(0 0 0)
(0 0 0)
(0 0 0)
(0 0 0)
(0 0 0)
(0 0 0)
(0 0 0)
(0 0 0)
(0 0 0)
(0 0 0)
(0 0 0)
(0 0 0)
(0 0 0)
(0 0 0)
(0 0 0)
(0 0 0)
(0 0 0)
(0 0 0)
(0 0 0)
(0 0 0)
(0 0 0)
(0 0 0)
(0 0 0)
(0 0 0)
(0 0 0)
(0 0 0)
(0 0 0)
(0 0 0)
(0 0 0)
(0 0 0)
(0 0 0)
(0 0 0)
(0 0 0)
(0 0 0)
(0 0 0)
(0 0 0)
(0 0 0)
(0 0 0)
(0 0 0)
(0 0 0)
(0 0 0)
(0 0 0)
(0 0 0)
(0 0 0)
(0 0 0)
(0 0 0)
(0 0 0)
(0 0 0)
(0 0 0)
(0 0 0)
(0 0 0)
(0 0 0)
(0 0 0)
(0 0 0)
(0 0 0)
(0 0 0)
(0 0 0)
(0 0 0)
(0 0 0)
(0 0 0)
(0 0 0)
(0 0 0)
(0 0 0)
(0 0 0)
(0 0 0)
(0 0 0)
(0 0 0)
(0 0 0)
(0 0 0)
(0 0 0)
(0 0 0)
(0 0 0)
(0 0 0)
(0 0 0)
(0 0 0)
(0 0 0)
(0 0 0)
(0 0 0)
(0 0 0)
(0 0 0)
(0 0 0)
(0 0 0)
(0 0 0)
(0 0 0)
(0 0 0)
(0 0 0)
(0 0 0)
(0 0 0)
(0 0 0)
(0 0 0)
(0 0 0)
(0 0 0)
(0 0 0)
(0 0 0)
(0 0 0)
(0 0 0)
(0 0 0)
(0 0 0)
(0 0 0)
(0 0 0)
(0 0 0)
(0 0 0)
(0 0 0)
(0 0 0)
(0 0 0)
(0 0 0)
(0 0 0)
(0 0 0)
(0 0 0)
(0 0 0)
(0 0 0)
(0 0 0)
(0 0 0)
(0 0 0)
(0 0 0)
(0 0 0)
(0 0 0)
(0 0 0)
(0 0 0)
(0 0 0)
(0 0 0)
(0 0 0)
(0 0 0)
(0 0 0)
(0 0 0)
(0 0 0)
(0 0 0)
(0 0 0)
(0 0 0)
(0 0 0)
(0 0 0)
(0 0 0)
(0 0 0)
(0 0 0)
(0 0 0)
(0 0 0)
(0 0 0)
(0 0 0)
(0 0 0)
(0 0 0)
(0 0 0)
(0 0 0)
(0 0 0)
(0 0 0)
(0 0 0)
(0 0 0)
(0 0 0)
(0 0 0)
(0 0 0)
(0 0 0)
(0 0 0)
(0 0 0)
(0 0 0)
(0 0 0)
(0 0 0)
(0 0 0)
(0 0 0)
(0 0 0)
(0 0 0)
(0 0 0)
(0 0 0)
(0 0 0)
(0 0 0)
(0 0 0)
(0 0 0)
(0 0 0)
(0 0 0)
(0 0 0)
(0 0 0)
(0 0 0)
(0 0 0)
(0 0 0)
(0 0 0)
(0 0 0)
(0 0 0)
(0 0 0)
(0 0 0)
(0 0 0)
(0 0 0)
(0 0 0)
(0 0 0)
(0 0 0)
(0 0 0)
(0 0 0)
(0 0 0)
(0 0 0)
(0 0 0)
(0 0 0)
(0 0 0)
(0 0 0)
(0 0 0)
(0 0 0)
(0 0 0)
(0 0 0)
(0 0 0)
(0 0 0)
(0 0 0)
(0 0 0)
(0 0 0)
(0 0 0)
(0 0 0)
(0 0 0)
(0 0 0)
(0 0 0)
(0 0 0)
(0 0 0)
(0 0 0)
(0 0 0)
(0 0 0)
(0 0 0)
(0 0 0)
(0 0 0)
(0 0 0)
(0 0 0)
(0 0 0)
(0 0 0)
(0 0 0)
(0 0 0)
(0 0 0)
(0 0 0)
(0 0 0)
(0 0 0)
(0 0 0)
(0 0 0)
(0 0 0)
(0 0 0)
(0 0 0)
(0 0 0)
(0 0 0)
(0 0 0)
(0 0 0)
(0 0 0)
(0 0 0)
(0 0 0)
(0 0 0)
(0 0 0)
(0 0 0)
(0 0 0)
(0 0 0)
)
;

boundaryField
{
    wall_bottom
    {
        type            calculated;
        value           uniform (4.85065e-05 -2.9403e-08 8.29949e-08);
    }
    wall_top
    {
        type            calculated;
        value           uniform (0 0 0);
    }
    front1
    {
        type            cyclic;
    }
    back1
    {
        type            cyclic;
    }
    left1
    {
        type            cyclic;
    }
    right1
    {
        type            cyclic;
    }
    front2
    {
        type            cyclic;
    }
    back2
    {
        type            cyclic;
    }
    left2
    {
        type            cyclic;
    }
    right2
    {
        type            cyclic;
    }
    front3
    {
        type            cyclic;
    }
    back3
    {
        type            cyclic;
    }
    left3
    {
        type            cyclic;
    }
    right3
    {
        type            cyclic;
    }
}


// ************************************************************************* //
