/*--------------------------------*- C++ -*----------------------------------*\
| =========                 |                                                 |
| \\      /  F ield         | OpenFOAM: The Open Source CFD Toolbox           |
|  \\    /   O peration     | Version:  2.4.x                                 |
|   \\  /    A nd           | Web:      www.OpenFOAM.org                      |
|    \\/     M anipulation  |                                                 |
\*---------------------------------------------------------------------------*/
FoamFile
{
    version     2.0;
    format      ascii;
    class       volScalarField;
    location    "0";
    object      tf;
}
// * * * * * * * * * * * * * * * * * * * * * * * * * * * * * * * * * * * * * //

dimensions      [0 0 1 0 0 0 0];

internalField   nonuniform List<scalar> 
600
(
10.1784
10.0941
9.9458
9.68437
9.35736
9.05312
8.66963
8.27398
7.94567
7.68068
7.19154
6.98047
6.73876
6.48185
6.25661
6.08491
5.89919
5.7295
5.59623
5.48944
5.28694
5.19468
5.08509
4.9625
4.84895
4.75603
4.64961
4.54612
4.45546
4.37603
4.20651
4.11546
3.99675
3.83728
3.65713
3.48392
3.2226
2.77458
2.15767
1.51239
0.967649
0.93051
0.912947
0.865691
0.605868
0.196698
0.0174032
0.0131196
0.010792
0.00864493
0.00789638
0.012466
0.019538
0.0302193
0.0410126
0.0502113
0.058885
0.0659934
0.0708651
0.0743407
0.078622
0.0804505
0.0820056
0.0834034
0.0844832
0.0852436
0.0859485
0.0865583
0.0870329
0.0874703
0.0880722
0.0885281
0.0889433
0.0894566
0.0900704
0.090539
0.0911669
0.0918014
0.092381
0.0931126
0.0939427
0.0947215
0.0954645
0.0963212
0.0973663
0.0981183
0.0992817
0.100386
0.101269
0.102399
0.104078
0.105184
0.106323
0.107814
0.109601
0.111019
0.112635
0.114378
0.115992
0.117941
0.120529
0.122808
0.124774
0.127481
0.129965
0.132824
0.135711
0.139065
0.142172
0.145874
0.150114
0.154556
0.15861
0.163604
0.169169
0.174841
0.181471
0.187727
0.19456
0.202133
0.210887
0.220393
0.227809
0.242919
0.251518
0.263366
0.275294
0.285886
0.302306
0.316481
0.331638
0.345926
0.358312
0.377419
0.392326
0.406067
0.419373
0.438523
0.450714
0.462915
0.47998
0.494449
0.504842
0.516022
0.533526
0.541481
0.548874
0.56835
0.573099
0.577657
0.600896
0.605034
0.609431
0.624709
0.63023
0.636283
0.648417
0.65428
0.661174
0.671512
0.677414
0.684904
0.693287
0.699004
0.706986
0.71546
0.720597
0.727844
0.736668
0.741727
0.748851
0.758774
0.763894
0.770425
0.779839
0.785277
0.792857
0.80133
0.807034
0.816419
0.824399
0.83023
0.840856
0.847744
0.853534
0.866674
0.87351
0.879253
0.89257
0.900447
0.90695
0.920784
0.929475
0.936786
0.950851
0.959881
0.967891
0.983425
0.992226
1.00051
1.02003
1.0282
1.03689
1.05781
1.06547
1.07388
1.09877
1.10699
1.11595
1.13972
1.1503
1.16291
1.1839
1.1954
1.21046
1.23076
1.24329
1.26108
1.27845
1.29221
1.31499
1.33295
1.34587
1.3674
1.38744
1.40034
1.42064
1.44303
1.4566
1.47584
1.50085
1.5161
1.53579
1.55642
1.57104
1.59519
1.61359
1.62773
1.65401
1.67021
1.68387
1.7152
1.72729
1.73841
1.77277
1.78467
1.79553
1.82571
1.83852
1.85058
1.87989
1.89258
1.90606
1.93027
1.94293
1.95722
1.97977
1.99161
2.00571
2.02839
2.03911
2.0521
2.07418
2.08372
2.09507
2.11685
2.12642
2.13778
2.15513
2.16457
2.17742
2.19225
2.20112
2.21415
2.2255
2.23346
2.24701
2.25606
2.26296
2.27594
2.28471
2.29077
2.30088
2.30855
2.31385
2.32201
2.32894
2.33378
2.34016
2.34509
2.34887
2.35469
2.35774
2.36027
2.36453
2.36608
2.36746
2.36995
2.37039
2.37081
2.37098
2.37098
2.37098
2.37098
2.37098
2.37098
2.37098
2.37098
2.37098
2.37098
2.37098
2.37098
2.37098
2.37098
2.37098
2.37098
2.37098
2.37098
2.37098
2.37098
2.37098
2.37098
2.37098
2.37098
2.37098
2.37098
2.37098
2.37098
2.37098
2.37098
2.37098
2.37098
2.37098
2.37098
2.37098
2.37098
2.37098
2.37098
2.37098
2.37098
2.37098
2.37098
2.37098
2.37098
2.37098
2.37098
2.37098
2.37098
2.37098
2.37098
2.37098
2.37098
2.37098
2.37098
2.37098
2.37098
2.37098
2.37098
2.37098
2.37098
2.37098
2.37098
2.37098
2.37098
2.37098
2.37098
2.37098
2.37098
2.37098
2.37098
2.37098
2.37098
2.37098
2.37098
2.37098
2.37098
2.37098
2.37098
2.37098
2.37098
2.37098
2.37098
2.37098
2.37098
2.37098
2.37098
2.37098
2.37098
2.37098
2.37098
2.37098
2.37098
2.37098
2.37098
2.37098
2.37098
2.37098
2.37098
2.37098
2.37098
2.37098
2.37098
2.37098
2.37098
2.37098
2.37098
2.37098
2.37098
2.37098
2.37098
2.37098
2.37098
2.37098
2.37098
2.37098
2.37098
2.37098
2.37098
2.37098
2.37098
2.37098
2.37098
2.37098
2.37098
2.37098
2.37098
2.37098
2.37098
2.37098
2.37098
2.37098
2.37098
2.37098
2.37098
2.37098
2.37098
2.37098
2.37098
2.37098
2.37098
2.37098
2.37098
2.37098
2.37098
2.37098
2.37098
2.37098
2.37098
2.37098
2.37098
2.37098
2.37098
2.37098
2.37098
2.37098
2.37098
2.37098
2.37098
2.37098
2.37098
2.37098
2.37098
2.37098
2.37098
2.37098
2.37098
2.37098
2.37098
2.37098
2.37098
2.37098
2.37098
2.37098
2.37098
2.37098
2.37098
2.37098
2.37098
2.37098
2.37098
2.37098
2.37098
2.37098
2.37098
2.37098
2.37098
2.37098
2.37098
2.37098
2.37098
2.37098
2.37098
2.37098
2.37098
2.37098
2.37098
2.37098
2.37098
2.37098
2.37098
2.37098
2.37098
2.37098
2.37098
2.37098
2.37098
2.37098
2.37098
2.37098
2.37098
2.37098
2.37098
2.37098
2.37098
2.37098
2.37098
2.37098
2.37098
2.37098
2.37098
2.37098
2.37098
2.37098
2.37098
2.37098
2.37098
2.37098
2.37098
2.37098
2.37098
2.37098
2.37098
2.37098
2.37098
2.37098
2.37098
2.37098
2.37098
2.37098
2.37098
2.37098
2.37098
2.37098
2.37098
2.37098
2.37098
2.37098
2.37098
2.37098
2.37098
2.37098
2.37098
2.37098
2.37098
2.37098
2.37098
2.37098
2.37098
2.37098
2.37098
2.37098
2.37098
2.37098
2.37098
2.37098
2.37098
2.37098
2.37098
2.37098
2.37098
2.37098
2.37098
2.37098
2.37098
2.37098
2.37098
2.37098
2.37098
2.37098
2.37098
2.37098
2.37098
2.37098
2.37098
2.37098
2.37098
2.37098
2.37098
2.37098
2.37098
2.37098
2.37098
2.37098
2.37098
2.37098
2.37098
2.37098
2.37098
2.37098
2.37098
)
;

boundaryField
{
    wall_bottom
    {
        type            calculated;
        value           uniform 10.1929;
    }
    wall_top
    {
        type            zeroGradient;
    }
    front1
    {
        type            cyclic;
    }
    back1
    {
        type            cyclic;
    }
    left1
    {
        type            cyclic;
    }
    right1
    {
        type            cyclic;
    }
    front2
    {
        type            cyclic;
    }
    back2
    {
        type            cyclic;
    }
    left2
    {
        type            cyclic;
    }
    right2
    {
        type            cyclic;
    }
    front3
    {
        type            cyclic;
    }
    back3
    {
        type            cyclic;
    }
    left3
    {
        type            cyclic;
    }
    right3
    {
        type            cyclic;
    }
}


// ************************************************************************* //
