/*--------------------------------*- C++ -*----------------------------------*\
| =========                 |                                                 |
| \\      /  F ield         | OpenFOAM: The Open Source CFD Toolbox           |
|  \\    /   O peration     | Version:  2.4.0                                 |
|   \\  /    A nd           | Web:      www.OpenFOAM.org                      |
|    \\/     M anipulation  |                                                 |
\*---------------------------------------------------------------------------*/
FoamFile
{
    version     2.0;
    format      ascii;
    class       volScalarField;
    location    "0";
    object      ddtVoidfraction;
}
// * * * * * * * * * * * * * * * * * * * * * * * * * * * * * * * * * * * * * //

dimensions      [0 0 -1 0 0 0 0];

internalField   nonuniform List<scalar> 
463
(
2.80763e-15
1.38442e-14
5.49593e-14
-0.000517284
-0.00996878
-0.0308768
-0.069924
-0.120086
-0.211084
-0.301834
-0.30576
-0.185315
0.0923773
0.237207
0.267077
0.225705
0.197622
0.151275
0.0552937
0.00826063
0.000549116
-0.000236359
-0.00889568
-0.0256503
-0.0483381
-0.0899076
-0.173385
-0.27946
-0.3667
-0.517087
-0.668725
-0.773568
-0.801711
0.896683
0.844418
0.64971
0.369371
0.113372
0.00287741
-0.0978956
-0.129313
0.0177317
0.199233
0.301723
0.293456
0.155617
0.0774184
0.0272093
-0.0247526
-0.0471076
-0.0557646
-0.0667692
-0.059302
-0.0230945
0.0463289
0.0764403
0.0754587
0.052771
0.0595958
0.158528
0.300117
0.423768
0.654015
0.891972
1.05672
1.10095
-1.10095
-1.05672
-0.891972
-0.653886
-0.421276
-0.292397
-0.141047
-0.0295745
-2.77556e-13
-2.77556e-13
-2.77556e-13
-2.77556e-13
-2.76425e-13
-2.60548e-13
-1.63715e-13
-0.0165381
-0.057448
-0.32666
-1.02582
-1.9871
-3.89386
-7.36316
-8.54833
-7.87932
-5.90549
-3.89939
-2.70704
-1.72017
-1.14826
-0.731224
-0.503533
-0.353758
-0.313554
-5.61528e-15
-2.76884e-14
-1.09918e-13
-2.2804e-13
-3.31165e-13
-3.66793e-13
-3.88739e-13
-3.75526e-13
-2.65388e-13
-1.40827e-13
-7.04889e-14
-7.61622e-14
-1.70288e-13
-2.1734e-13
-2.1145e-13
-1.6341e-13
-1.35624e-13
-9.53042e-14
-9.78698e-15
4.88789e-14
1.06514e-13
2.02692e-13
2.55907e-13
2.77556e-13
2.77556e-13
2.77556e-13
2.77556e-13
2.77556e-13
2.77556e-13
2.77556e-13
2.77556e-13
2.77556e-13
2.77556e-13
-3.56218
-3.25663
-2.11834
-0.477394
1.05647
1.78487
2.52794
2.90936
2.40846
1.70514
1.02013
0.3446
-0.39271
-0.752644
-0.707589
-0.346705
-0.150511
0.0502482
0.424783
0.489063
0.167263
-0.492453
-0.843456
-0.959789
-0.914413
-0.669959
0.105028
1.14272
2.02017
3.58972
5.19165
6.29998
6.59749
0
0
0
0
0
0
0
0
0
0
0
0
0
0
0
0
0
0
0
0
0
0
0
0
0
0
0
0
0
0
0
0
0
0
0
0
0
0
0
0
0
0
0
0
0
0
0
0
0
0
0
0
0
0
0
0
0
0
0
0
0
0
0
0
0
0
0
0
0
0
0
0
0
0
0
0
0
0
0
0
0
0
0
0
0
0
0
0
0
0
0
0
0
0
0
0
0
0
0
0
0
0
0
0
0
0
0
0
0
0
0
0
0
0
0
0
0
0
0
0
0
0
0
0
0
0
0
0
0
0
0
0
0
0
0
0
0
0
0
0
0
0
0
0
0
0
0
0
0
0
0
0
0
0
0
0
0
0
0
0
0
0
0
0
0
0
0
0
0
0
0
0
0
0
0
0
0
0
0
0
0
0
0
0
0
0
0
0
0
0
0
0
0
0
0
0
0
0
0
0
0
0
0
0
0
0
0
0
0
0
0
0
0
0
0
0
0
0
0
0
0
0
0
0
0
0
0
0
0
0
0
0
0
0
0
0
0
0
0
0
0
0
0
0
0
0
0
0
0
0
0
0
0
0
0
0
0
0
0
0
0
0
0
0
0
0
0
0
0
0
0
0
0
0
0
0
0
0
0
0
0
0
0
0
0
0
0
0
0
0
0
0
0
0
0
0
0
0
)
;

boundaryField
{
    wall_bottom
    {
        type            calculated;
        value           uniform 0;
    }
    wall_top
    {
        type            zeroGradient;
    }
    front1
    {
        type            cyclic;
    }
    back1
    {
        type            cyclic;
    }
    left1
    {
        type            cyclic;
    }
    right1
    {
        type            cyclic;
    }
    front2
    {
        type            cyclic;
    }
    back2
    {
        type            cyclic;
    }
    left2
    {
        type            cyclic;
    }
    right2
    {
        type            cyclic;
    }
    front3
    {
        type            cyclic;
    }
    back3
    {
        type            cyclic;
    }
    left3
    {
        type            cyclic;
    }
    right3
    {
        type            cyclic;
    }
}


// ************************************************************************* //
