/*--------------------------------*- C++ -*----------------------------------*\
| =========                 |                                                 |
| \\      /  F ield         | OpenFOAM: The Open Source CFD Toolbox           |
|  \\    /   O peration     | Version:  2.4.0                                 |
|   \\  /    A nd           | Web:      www.OpenFOAM.org                      |
|    \\/     M anipulation  |                                                 |
\*---------------------------------------------------------------------------*/
FoamFile
{
    version     2.0;
    format      ascii;
    class       volScalarField;
    location    "0";
    object      ccz;
}
// * * * * * * * * * * * * * * * * * * * * * * * * * * * * * * * * * * * * * //

dimensions      [0 1 0 0 0 0 0];

internalField   nonuniform List<scalar> 
635
(
0.000125
0.000375
0.000625
0.000875
0.001125
0.001375
0.001625
0.001875
0.002125
0.002375
0.002625
0.002875
0.003125
0.003375
0.003625
0.003875
0.004125
0.004375
0.004625
0.004875
0.005125
0.005375
0.005625
0.005875
0.006125
0.006375
0.006625
0.006875
0.007125
0.007375
0.007625
0.007875
0.008125
0.008375
0.008625
0.008875
0.009125
0.009375
0.009625
0.009875
0.010125
0.010375
0.010625
0.010875
0.011125
0.011375
0.011625
0.011875
0.012125
0.012375
0.012625
0.012875
0.013125
0.013375
0.013625
0.013875
0.014125
0.014375
0.014625
0.014875
0.015125
0.015375
0.015625
0.015875
0.016125
0.016375
0.016625
0.016875
0.017125
0.017375
0.017625
0.017875
0.018125
0.018375
0.018625
0.018875
0.019125
0.019375
0.019625
0.019875
0.020125
0.020375
0.020625
0.020875
0.021125
0.021375
0.021625
0.021875
0.022125
0.022375
0.022625
0.022875
0.023125
0.023375
0.023625
0.023875
0.024125
0.024375
0.024625
0.024875
0.025125
0.025375
0.025625
0.025875
0.026125
0.026375
0.026625
0.026875
0.027125
0.027375
0.027625
0.027875
0.028125
0.028375
0.028625
0.028875
0.029125
0.029375
0.029625
0.029875
0.030125
0.030375
0.030625
0.030875
0.031125
0.031375
0.031625
0.031875
0.032125
0.032375
0.032625
0.032875
0.033125
0.033375
0.033625
0.033875
0.034125
0.034375
0.034625
0.034875
0.035125
0.035375
0.035625
0.035875
0.036125
0.036375
0.036625
0.036875
0.037125
0.037375
0.037625
0.037875
0.038125
0.038375
0.038625
0.038875
0.039125
0.039375
0.039625
0.039875
0.040125
0.040375
0.040625
0.040875
0.041125
0.041375
0.041625
0.041875
0.042125
0.042375
0.042625
0.042875
0.043125
0.043375
0.043625
0.043875
0.044125
0.044375
0.044625
0.044875
0.045125
0.045375
0.045625
0.045875
0.046125
0.046375
0.046625
0.046875
0.047125
0.047375
0.047625
0.047875
0.048125
0.048375
0.048625
0.048875
0.049125
0.049375
0.049625
0.049875
0.0501248
0.0503753
0.0506277
0.050882
0.0511383
0.0513965
0.0516566
0.0519187
0.0521828
0.0524489
0.0527169
0.0529871
0.0532592
0.0535334
0.0538097
0.0540881
0.0543686
0.0546512
0.054936
0.0552229
0.0555119
0.0558032
0.0560967
0.0563923
0.0566903
0.0569904
0.0572929
0.0575976
0.0579046
0.058214
0.0585257
0.0588397
0.0591561
0.059475
0.0597962
0.0601198
0.0604459
0.0607745
0.0611056
0.0614391
0.0617752
0.0621138
0.062455
0.0627988
0.0631451
0.0634941
0.0638458
0.0642
0.064557
0.0649167
0.065279
0.0656442
0.0660121
0.0663827
0.0667562
0.0671325
0.0675116
0.0678936
0.0682785
0.0686663
0.0690571
0.0694508
0.0698474
0.0702471
0.0706498
0.0710555
0.0714643
0.0718762
0.0722913
0.0727094
0.0731307
0.0735552
0.0739829
0.0744139
0.0748481
0.0752856
0.0757264
0.0761705
0.076618
0.0770689
0.0775232
0.0779809
0.0784421
0.0789067
0.0793749
0.0798467
0.0803219
0.0808008
0.0812833
0.0817695
0.0822593
0.0827529
0.0832501
0.0837512
0.084256
0.0847646
0.0852771
0.0857935
0.0863137
0.0868379
0.0873661
0.0878983
0.0884345
0.0889747
0.089519
0.0900675
0.09062
0.0911768
0.0917378
0.092303
0.0928725
0.0934463
0.0940245
0.094607
0.0951939
0.0957852
0.0963811
0.0969814
0.0975863
0.0981957
0.0988098
0.0994285
0.100052
0.10068
0.101313
0.10195
0.102593
0.10324
0.103892
0.10455
0.105212
0.105879
0.106551
0.107228
0.107911
0.108598
0.109291
0.109989
0.110692
0.111401
0.112115
0.112834
0.113559
0.114289
0.115025
0.115766
0.116513
0.117266
0.118024
0.118788
0.119558
0.120333
0.121115
0.121902
0.122695
0.123495
0.1243
0.125112
0.125929
0.126753
0.127583
0.128419
0.129262
0.130111
0.130966
0.131828
0.132697
0.133572
0.134453
0.135342
0.136237
0.137138
0.138047
0.138962
0.139885
0.140814
0.14175
0.142694
0.143644
0.144602
0.145567
0.14654
0.147519
0.148506
0.149501
0.1505
0.1515
0.1525
0.1535
0.1545
0.1555
0.1565
0.1575
0.1585
0.1595
0.1605
0.1615
0.1625
0.1635
0.1645
0.1655
0.1665
0.1675
0.1685
0.1695
0.1705
0.1715
0.1725
0.1735
0.1745
0.1755
0.1765
0.1775
0.1785
0.1795
0.1805
0.1815
0.1825
0.1835
0.1845
0.1855
0.1865
0.1875
0.1885
0.1895
0.1905
0.1915
0.1925
0.1935
0.1945
0.1955
0.1965
0.1975
0.1985
0.1995
0.2005
0.2015
0.2025
0.2035
0.2045
0.2055
0.2065
0.2075
0.2085
0.2095
0.2105
0.2115
0.2125
0.2135
0.2145
0.2155
0.2165
0.2175
0.2185
0.2195
0.2205
0.2215
0.2225
0.2235
0.2245
0.2255
0.2265
0.2275
0.2285
0.2295
0.2305
0.2315
0.2325
0.2335
0.2345
0.2355
0.2365
0.2375
0.2385
0.2395
0.2405
0.2415
0.2425
0.2435
0.2445
0.2455
0.2465
0.2475
0.2485
0.2495
0.2505
0.2515
0.2525
0.2535
0.2545
0.2555
0.2565
0.2575
0.2585
0.2595
0.2605
0.2615
0.2625
0.2635
0.2645
0.2655
0.2665
0.2675
0.2685
0.2695
0.2705
0.2715
0.2725
0.2735
0.2745
0.2755
0.2765
0.2775
0.2785
0.2795
0.2805
0.2815
0.2825
0.2835
0.2845
0.2855
0.2865
0.2875
0.2885
0.2895
0.2905
0.2915
0.2925
0.2935
0.2945
0.2955
0.2965
0.2975
0.2985
0.2995
0.3005
0.3015
0.3025
0.3035
0.3045
0.3055
0.3065
0.3075
0.3085
0.3095
0.3105
0.3115
0.3125
0.3135
0.3145
0.3155
0.3165
0.3175
0.3185
0.3195
0.3205
0.3215
0.3225
0.3235
0.3245
0.3255
0.3265
0.3275
0.3285
0.3295
0.3305
0.3315
0.3325
0.3335
0.3345
0.3355
0.3365
0.3375
0.3385
0.3395
0.3405
0.3415
0.3425
0.3435
0.3445
0.3455
0.3465
0.3475
0.3485
0.3495
0.3505
0.3515
0.3525
0.3535
0.3545
0.3555
0.3565
0.3575
0.3585
0.3595
0.3605
0.3615
0.3625
0.3635
0.3645
0.3655
0.3665
0.3675
0.3685
0.3695
0.3705
0.3715
0.3725
0.3735
0.3745
0.3755
0.3765
0.3775
0.3785
0.3795
0.3805
0.3815
0.3825
0.3835
0.3845
0.3855
0.3865
0.3875
0.3885
0.3895
0.3905
0.3915
0.3925
0.3935
0.3945
0.3955
0.3965
0.3975
0.3985
0.3995
)
;

boundaryField
{
    wall_bottom
    {
        type            calculated;
        value           uniform 0;
    }
    wall_top
    {
        type            calculated;
        value           uniform 0.4;
    }
    front1
    {
        type            cyclic;
    }
    back1
    {
        type            cyclic;
    }
    left1
    {
        type            cyclic;
    }
    right1
    {
        type            cyclic;
    }
    front2
    {
        type            cyclic;
    }
    back2
    {
        type            cyclic;
    }
    left2
    {
        type            cyclic;
    }
    right2
    {
        type            cyclic;
    }
    front3
    {
        type            cyclic;
    }
    back3
    {
        type            cyclic;
    }
    left3
    {
        type            cyclic;
    }
    right3
    {
        type            cyclic;
    }
}


// ************************************************************************* //
