/*--------------------------------*- C++ -*----------------------------------*\
| =========                 |                                                 |
| \\      /  F ield         | OpenFOAM: The Open Source CFD Toolbox           |
|  \\    /   O peration     | Version:  2.4.0                                 |
|   \\  /    A nd           | Web:      www.OpenFOAM.org                      |
|    \\/     M anipulation  |                                                 |
\*---------------------------------------------------------------------------*/
FoamFile
{
    version     2.0;
    format      ascii;
    class       volScalarField;
    location    "0";
    object      ddtVoidfraction;
}
// * * * * * * * * * * * * * * * * * * * * * * * * * * * * * * * * * * * * * //

dimensions      [0 0 -1 0 0 0 0];

internalField   nonuniform List<scalar> 
635
(
2.34026e-15
9.90721e-15
3.25385e-14
6.99065e-14
-0.000795821
-0.0104348
-0.0282119
-0.0561515
-0.0903297
-0.150995
-0.221688
-0.301834
-0.326766
-0.236406
-0.0470617
0.117176
0.263642
0.266899
0.238686
0.208247
0.184563
0.126523
0.0530017
0.0109823
0.000954984
1.54927e-13
-0.000644616
-0.0122477
-0.0256503
-0.0456871
-0.0633603
-0.136434
-0.205085
-0.287855
-0.364627
-0.465288
-0.63061
-0.725898
-0.783607
-0.802902
0.898896
0.863062
0.755887
0.578925
0.273859
0.11067
0.0119007
-0.0729647
-0.116233
-0.102446
0.0389395
0.199233
0.292114
0.316552
0.225748
0.142913
0.0621598
0.0290171
-0.0124775
-0.0412603
-0.0511285
-0.0592121
-0.0667248
-0.0659107
-0.0292942
0.0117654
0.0591016
0.0816918
0.0754587
0.055422
0.0377488
0.11358
0.199488
0.311595
0.42081
0.572795
0.832077
0.981814
1.0725
1.10282
-1.10282
-1.0725
-0.981814
-0.832077
-0.572596
-0.418201
-0.304542
-0.18545
-0.0909984
-2.77556e-13
-2.77556e-13
-2.77556e-13
-2.77556e-13
-2.77556e-13
-2.77556e-13
-2.7559e-13
-2.54945e-13
-1.68434e-13
-0.0114896
-0.0233274
-0.122009
-0.478836
-1.05669
-1.62264
-3.57881
-5.64372
-7.98669
-8.68687
-7.87932
-6.13613
-4.59855
-3.19636
-2.36712
-1.65117
-1.16119
-0.811181
-0.557982
-0.421858
-0.339416
-0.311851
-4.68054e-15
-1.98145e-14
-6.5077e-14
-1.39813e-13
-2.6823e-13
-3.3206e-13
-3.64389e-13
-3.85481e-13
-3.85711e-13
-3.47863e-13
-2.50833e-13
-1.40827e-13
-7.70835e-14
-6.0312e-14
-1.22629e-13
-1.78658e-13
-2.25477e-13
-2.12175e-13
-1.76635e-13
-1.45624e-13
-1.23953e-13
-7.40015e-14
-7.36664e-15
3.70063e-14
9.75869e-14
1.54927e-13
2.20783e-13
2.67715e-13
2.77556e-13
2.77556e-13
2.77556e-13
2.77556e-13
2.77556e-13
2.77556e-13
2.77556e-13
2.77556e-13
2.77556e-13
2.77556e-13
2.77556e-13
2.77556e-13
-3.57512
-3.36562
-2.73907
-1.70452
0.0820814
1.0741
1.72161
2.32789
2.71559
2.87415
2.32628
1.70514
1.21438
0.495655
-0.0281236
-0.45674
-0.814891
-0.713139
-0.445857
-0.213363
-0.087051
0.152342
0.430951
0.544021
0.224992
-0.162327
-0.616855
-0.918484
-0.959789
-0.919715
-0.884368
-0.241867
0.410622
1.22575
1.99925
3.04273
4.78872
5.79604
6.40611
6.61009
0
0
0
0
0
0
0
0
0
0
0
0
0
0
0
0
0
0
0
0
0
0
0
0
0
0
0
0
0
0
0
0
0
0
0
0
0
0
0
0
0
0
0
0
0
0
0
0
0
0
0
0
0
0
0
0
0
0
0
0
0
0
0
0
0
0
0
0
0
0
0
0
0
0
0
0
0
0
0
0
0
0
0
0
0
0
0
0
0
0
0
0
0
0
0
0
0
0
0
0
0
0
0
0
0
0
0
0
0
0
0
0
0
0
0
0
0
0
0
0
0
0
0
0
0
0
0
0
0
0
0
0
0
0
0
0
0
0
0
0
0
0
0
0
0
0
0
0
0
0
0
0
0
0
0
0
0
0
0
0
0
0
0
0
0
0
0
0
0
0
0
0
0
0
0
0
0
0
0
0
0
0
0
0
0
0
0
0
0
0
0
0
0
0
0
0
0
0
0
0
0
0
0
0
0
0
0
0
0
0
0
0
0
0
0
0
0
0
0
0
0
0
0
0
0
0
0
0
0
0
0
0
0
0
0
0
0
0
0
0
0
0
0
0
0
0
0
0
0
0
0
0
0
0
0
0
0
0
0
0
0
0
0
0
0
0
0
0
0
0
0
0
0
0
0
0
0
0
0
0
0
0
0
0
0
0
0
0
0
0
0
0
0
0
0
0
0
0
0
0
0
0
0
0
0
0
0
0
0
0
0
0
0
0
0
0
0
0
0
0
0
0
0
0
0
0
0
0
0
0
0
0
0
0
0
0
0
0
0
0
0
0
0
0
0
0
0
0
0
0
0
0
0
0
0
0
0
0
0
0
0
0
0
0
0
0
0
0
0
0
0
0
0
0
0
0
0
0
0
0
0
0
0
0
0
0
0
0
0
0
0
0
0
0
0
0
0
0
0
0
0
0
0
0
0
0
0
0
0
0
0
0
0
0
0
0
0
0
0
0
0
0
0
0
0
0
0
0
0
0
0
0
0
0
0
)
;

boundaryField
{
    wall_bottom
    {
        type            calculated;
        value           uniform 0;
    }
    wall_top
    {
        type            zeroGradient;
    }
    front1
    {
        type            cyclic;
    }
    back1
    {
        type            cyclic;
    }
    left1
    {
        type            cyclic;
    }
    right1
    {
        type            cyclic;
    }
    front2
    {
        type            cyclic;
    }
    back2
    {
        type            cyclic;
    }
    left2
    {
        type            cyclic;
    }
    right2
    {
        type            cyclic;
    }
    front3
    {
        type            cyclic;
    }
    back3
    {
        type            cyclic;
    }
    left3
    {
        type            cyclic;
    }
    right3
    {
        type            cyclic;
    }
}


// ************************************************************************* //
