/*--------------------------------*- C++ -*----------------------------------*\
| =========                 |                                                 |
| \\      /  F ield         | OpenFOAM: The Open Source CFD Toolbox           |
|  \\    /   O peration     | Version:  2.4.0                                 |
|   \\  /    A nd           | Web:      www.OpenFOAM.org                      |
|    \\/     M anipulation  |                                                 |
\*---------------------------------------------------------------------------*/
FoamFile
{
    version     2.0;
    format      ascii;
    class       volVectorField;
    location    "0";
    object      impParticleForces;
}
// * * * * * * * * * * * * * * * * * * * * * * * * * * * * * * * * * * * * * //

dimensions      [1 1 -2 0 0 0 0];

internalField   nonuniform List<vector> 
635
(
(4.84955e-05 -2.95047e-08 8.36367e-08)
(4.84599e-05 -2.98338e-08 8.57121e-08)
(4.83535e-05 -3.08177e-08 9.19194e-08)
(4.81778e-05 -3.24424e-08 1.02169e-07)
(4.78721e-05 -3.52651e-08 1.20085e-07)
(4.76787e-05 -3.70294e-08 1.32542e-07)
(4.75228e-05 -3.84269e-08 1.43805e-07)
(4.73476e-05 -3.99774e-08 1.57432e-07)
(4.71934e-05 -4.13182e-08 1.70594e-07)
(4.70096e-05 -4.28665e-08 1.88711e-07)
(4.692e-05 -4.35201e-08 2.02564e-07)
(4.68184e-05 -4.42612e-08 2.18271e-07)
(4.67484e-05 -4.46551e-08 2.30384e-07)
(4.66796e-05 -4.45988e-08 2.47144e-07)
(4.66627e-05 -4.39416e-08 2.58405e-07)
(4.665e-05 -4.33551e-08 2.67669e-07)
(4.66298e-05 -4.27972e-08 2.7651e-07)
(4.65891e-05 -4.26259e-08 2.79343e-07)
(4.65198e-05 -4.24524e-08 2.82418e-07)
(4.64656e-05 -4.23458e-08 2.84393e-07)
(4.64394e-05 -4.23906e-08 2.84718e-07)
(4.63959e-05 -4.26648e-08 2.83957e-07)
(4.63442e-05 -4.31165e-08 2.82542e-07)
(4.63211e-05 -4.35698e-08 2.80888e-07)
(4.63615e-05 -4.5171e-08 2.74216e-07)
(4.64127e-05 -4.68637e-08 2.67105e-07)
(4.64711e-05 -4.88853e-08 2.58488e-07)
(4.6475e-05 -5.12734e-08 2.46325e-07)
(4.64388e-05 -5.27069e-08 2.37847e-07)
(4.63712e-05 -5.44105e-08 2.2702e-07)
(4.63116e-05 -5.59131e-08 2.1747e-07)
(4.6262e-05 -5.54391e-08 2.0438e-07)
(4.62348e-05 -5.43352e-08 1.94681e-07)
(4.62131e-05 -5.26211e-08 1.845e-07)
(4.62e-05 -5.07963e-08 1.75984e-07)
(4.61945e-05 -4.8009e-08 1.66376e-07)
(4.61982e-05 -4.29973e-08 1.52308e-07)
(4.62007e-05 -4.00954e-08 1.44253e-07)
(4.62022e-05 -3.83379e-08 1.39375e-07)
(4.62027e-05 -3.77503e-08 1.37744e-07)
(4.59005e-05 2.73408e-08 8.49688e-08)
(4.58973e-05 3.11053e-08 8.46025e-08)
(4.58876e-05 4.23644e-08 8.35069e-08)
(4.58715e-05 6.0955e-08 8.16978e-08)
(4.58422e-05 9.34443e-08 7.85637e-08)
(4.58065e-05 1.15927e-07 7.67073e-08)
(4.57591e-05 1.36149e-07 7.53505e-08)
(4.5691e-05 1.60541e-07 7.39375e-08)
(4.5613e-05 1.84018e-07 7.28279e-08)
(4.54828e-05 2.16173e-07 7.17846e-08)
(4.53425e-05 2.40477e-07 7.18498e-08)
(4.51834e-05 2.68032e-07 7.19239e-08)
(4.50425e-05 2.86804e-07 7.77397e-08)
(4.47864e-05 3.04384e-07 1.05283e-07)
(4.45512e-05 3.07548e-07 1.43875e-07)
(4.43557e-05 3.09168e-07 1.78697e-07)
(4.41938e-05 3.07457e-07 2.27033e-07)
(4.42474e-05 2.93039e-07 3.06826e-07)
(4.43925e-05 2.67048e-07 4.43842e-07)
(4.45194e-05 2.46347e-07 5.51378e-07)
(4.46704e-05 2.34819e-07 6.27449e-07)
(4.51078e-05 2.12455e-07 8.04109e-07)
(4.57627e-05 1.83735e-07 1.0546e-06)
(4.63258e-05 1.66589e-07 1.24779e-06)
(4.79249e-05 1.55451e-07 1.68807e-06)
(4.95882e-05 1.47121e-07 2.13662e-06)
(5.17856e-05 1.40859e-07 2.68777e-06)
(5.79812e-05 1.88603e-07 3.63169e-06)
(6.38377e-05 2.50006e-07 4.37216e-06)
(7.2162e-05 3.43879e-07 5.36315e-06)
(7.95044e-05 4.26677e-07 6.23725e-06)
(7.99628e-05 4.60688e-07 6.48992e-06)
(7.74485e-05 4.62269e-07 6.39622e-06)
(7.27042e-05 4.46513e-07 6.09068e-06)
(6.72532e-05 4.21066e-07 5.68919e-06)
(5.83415e-05 3.69504e-07 4.9644e-06)
(4.17644e-05 2.64806e-07 3.55583e-06)
(3.21507e-05 2.03851e-07 2.73731e-06)
(2.63283e-05 1.66933e-07 2.24159e-06)
(2.43815e-05 1.54589e-07 2.07584e-06)
(5.90294e-06 3.74273e-08 5.02577e-07)
(5.78144e-06 3.6657e-08 4.92233e-07)
(5.41807e-06 3.4353e-08 4.61296e-07)
(4.81809e-06 3.05489e-08 4.10213e-07)
(3.77619e-06 2.39428e-08 3.21505e-07)
(3.13101e-06 1.9852e-08 2.66574e-07)
(2.62665e-06 1.66542e-08 2.23633e-07)
(2.07255e-06 1.31409e-08 1.76457e-07)
(1.6e-06 1.01448e-08 1.36225e-07)
(1.06839e-06 6.77411e-09 9.09633e-08)
(8.73792e-07 5.54027e-09 7.43952e-08)
(6.53171e-07 4.14142e-09 5.56113e-08)
(4.95736e-07 3.1432e-09 4.22072e-08)
(3.20949e-07 2.03496e-09 2.73257e-08)
(2.47861e-07 1.57155e-09 2.11029e-08)
(1.90897e-07 1.21037e-09 1.6253e-08)
(1.35365e-07 8.58276e-10 1.15251e-08)
(1.12579e-07 7.138e-10 9.58498e-09)
(8.38751e-08 5.31806e-10 7.14113e-09)
(6.3906e-08 4.05193e-10 5.44096e-09)
(5.55972e-08 3.52511e-10 4.73356e-09)
(4.45255e-08 2.82311e-10 3.79091e-09)
(3.04289e-08 1.92932e-10 2.59072e-09)
(2.22386e-08 1.41002e-10 1.8934e-09)
(1.71578e-08 1.08788e-10 1.46082e-09)
(1.34489e-08 8.52719e-11 1.14504e-09)
(9.30281e-09 5.89842e-11 7.92045e-10)
(5.87028e-09 3.72202e-11 4.99797e-10)
(4.6801e-09 2.9674e-11 3.98465e-10)
(3.8208e-09 2.42256e-11 3.25305e-10)
(3.06287e-09 1.942e-11 2.60773e-10)
(2.32382e-09 1.4734e-11 1.9785e-10)
(1.86538e-09 1.18274e-11 1.5882e-10)
(1.44984e-09 9.1926e-12 1.2344e-10)
(1.14854e-09 7.28225e-12 9.77871e-11)
(8.94821e-10 5.67356e-12 7.61854e-11)
(6.33562e-10 4.01706e-12 5.39417e-11)
(4.87722e-10 3.09237e-12 4.15248e-11)
(3.99396e-10 2.53235e-12 3.40048e-11)
(3.69864e-10 2.3451e-12 3.14904e-11)
(8.95463e-11 5.67765e-13 7.624e-12)
(8.77032e-11 5.56079e-13 7.46708e-12)
(8.21909e-11 5.21129e-13 6.99776e-12)
(7.30892e-11 4.6342e-13 6.22284e-12)
(5.72838e-11 3.63206e-13 4.87716e-12)
(4.74966e-11 3.0115e-13 4.04388e-12)
(3.98457e-11 2.5264e-13 3.39248e-12)
(3.14401e-11 1.99344e-13 2.67682e-12)
(2.42717e-11 1.53894e-13 2.0665e-12)
(1.62072e-11 1.02761e-13 1.37989e-12)
(1.32552e-11 8.40438e-14 1.12856e-12)
(9.9084e-12 6.28235e-14 8.43606e-13)
(7.52013e-12 4.76809e-14 6.40266e-13)
(4.86861e-12 3.08692e-14 4.14516e-13)
(3.75988e-12 2.38394e-14 3.20119e-13)
(2.89576e-12 1.83606e-14 2.46548e-13)
(2.05337e-12 1.30194e-14 1.74826e-13)
(1.70772e-12 1.08278e-14 1.45397e-13)
(1.27231e-12 8.06707e-15 1.08326e-13)
(9.69391e-13 6.14641e-15 8.25348e-14)
(8.43353e-13 5.34726e-15 7.18036e-14)
(6.75404e-13 4.28238e-15 5.75043e-14)
(4.61569e-13 2.92657e-15 3.92982e-14)
(3.37329e-13 2.13883e-15 2.87203e-14)
(2.60259e-13 1.65017e-15 2.21585e-14)
(2.03999e-13 1.29345e-15 1.73685e-14)
(1.41108e-13 8.94694e-16 1.2014e-14)
(8.90404e-14 5.64558e-16 7.58092e-15)
(7.09871e-14 4.50091e-16 6.04387e-15)
(5.7953e-14 3.67449e-16 4.93415e-15)
(4.64566e-14 2.94556e-16 3.95533e-15)
(3.52465e-14 2.23479e-16 3.00091e-15)
(2.82929e-14 1.79391e-16 2.40888e-15)
(2.19899e-14 1.39426e-16 1.87224e-15)
(1.74199e-14 1.1045e-16 1.48315e-15)
(1.35715e-14 8.60498e-17 1.15549e-15)
(9.60891e-15 6.09249e-17 8.18111e-16)
(7.39689e-15 4.68998e-17 6.29777e-16)
(6.05722e-15 3.84057e-17 5.15716e-16)
(5.60929e-15 3.55656e-17 4.77579e-16)
(1.3579e-15 8.60976e-18 1.15613e-16)
(1.32995e-15 8.43255e-18 1.13233e-16)
(1.24635e-15 7.90253e-18 1.06116e-16)
(1.10833e-15 7.02738e-18 9.43645e-17)
(8.68648e-16 5.50764e-18 7.39573e-17)
(7.20226e-16 4.56658e-18 6.13206e-17)
(6.04201e-16 3.83093e-18 5.14421e-17)
(4.76733e-16 3.02272e-18 4.05894e-17)
(3.68027e-16 2.33348e-18 3.13342e-17)
(2.45734e-16 1.55809e-18 2.0922e-17)
(2.00972e-16 1.27427e-18 1.7111e-17)
(1.50225e-16 9.52504e-19 1.27903e-17)
(1.14011e-16 7.22893e-19 9.70706e-18)
(7.38082e-17 4.67982e-19 6.28411e-18)
(5.69986e-17 3.614e-19 4.85293e-18)
(4.38977e-17 2.78334e-19 3.7375e-18)
(3.11262e-17 1.97357e-19 2.65014e-18)
(2.5886e-17 1.64131e-19 2.20398e-18)
(1.92852e-17 1.22278e-19 1.64197e-18)
(1.46931e-17 9.31619e-20 1.25099e-18)
(1.27825e-17 8.10474e-20 1.08831e-18)
(1.02366e-17 6.49055e-20 8.71557e-19)
(6.99523e-18 4.43535e-20 5.95584e-19)
(5.11199e-18 3.24128e-20 4.35244e-19)
(3.94387e-18 2.50064e-20 3.35789e-19)
(3.09123e-18 1.96001e-20 2.63193e-19)
(2.13809e-18 1.35566e-20 1.82041e-19)
(1.34899e-18 8.55332e-21 1.14856e-19)
(1.0754e-18 6.81863e-21 9.15618e-20)
(8.77894e-19 5.56632e-21 7.47453e-20)
(7.03684e-19 4.46173e-21 5.99128e-20)
(5.33791e-19 3.38452e-21 4.54478e-20)
(4.28396e-19 2.71627e-21 3.64744e-20)
(3.32854e-19 2.11048e-21 2.83399e-20)
(2.63574e-19 1.67121e-21 2.24412e-20)
(2.05219e-19 1.30121e-21 1.74728e-20)
(1.45107e-19 9.20066e-22 1.23548e-20)
(1.11549e-19 7.07296e-22 9.49769e-21)
(9.12261e-20 5.78434e-22 7.76733e-21)
(8.44309e-20 5.35349e-22 7.18877e-21)
(1.85505e-20 1.17631e-22 1.57962e-21)
(1.85505e-20 1.17631e-22 1.57962e-21)
(1.80327e-20 1.14348e-22 1.53553e-21)
(1.69255e-20 1.07327e-22 1.44124e-21)
(1.16078e-20 7.36073e-23 9.8844e-22)
(9.81344e-21 6.22289e-23 8.35643e-22)
(9.40347e-21 5.96292e-23 8.00733e-22)
(7.38405e-21 4.68237e-23 6.28774e-22)
(5.16576e-21 3.27571e-23 4.39881e-22)
(3.53965e-21 2.24457e-23 3.01414e-22)
(3.4737e-21 2.20275e-23 2.95798e-22)
(2.22837e-21 1.41306e-23 1.89754e-22)
(1.29054e-21 8.18364e-24 1.09894e-22)
(1.061e-21 6.72812e-24 9.03491e-23)
(8.89118e-22 5.63816e-24 7.57125e-23)
(6.32766e-22 4.01256e-24 5.3883e-23)
(3.43173e-22 2.17617e-24 2.92229e-23)
(3.32059e-22 2.10569e-24 2.82765e-23)
(2.42912e-22 1.54038e-24 2.06852e-23)
(1.5736e-22 9.97875e-25 1.34001e-23)
(1.28559e-22 8.15238e-25 1.09475e-23)
(1.05867e-22 6.71338e-25 9.0151e-24)
(7.36654e-23 4.67138e-25 6.273e-24)
(4.23928e-23 2.68828e-25 3.61e-24)
(3.69448e-23 2.3428e-25 3.14608e-24)
(2.69689e-23 1.71019e-25 2.29657e-24)
(1.15493e-23 7.32386e-26 9.83497e-25)
(1.15493e-23 7.32386e-26 9.83497e-25)
(8.43247e-24 5.34737e-26 7.18081e-25)
(6.19555e-24 3.92887e-26 5.27595e-25)
(4.33464e-24 2.74879e-26 3.69127e-25)
(3.54118e-24 2.24563e-26 3.01559e-25)
(2.50711e-24 1.58988e-26 2.13501e-25)
(1.60263e-24 1.01631e-26 1.36478e-25)
(1.28673e-24 8.15983e-27 1.09577e-25)
(7.48742e-25 4.74817e-27 6.37622e-26)
(2.84485e-25 1.80408e-27 2.42266e-26)
(2.48928e-25 1.57859e-27 2.11986e-26)
(1.93691e-25 1.2283e-27 1.64946e-26)
(1.4347e-25 9.09822e-28 1.22179e-26)
(1.38223e-25 8.76549e-28 1.1771e-26)
(7.45505e-26 4.72769e-28 6.34874e-27)
(5.20531e-26 3.30102e-28 4.43288e-27)
(4.92552e-26 3.12359e-28 4.19461e-27)
(2.0949e-26 1.32852e-28 1.78405e-27)
(1.58578e-26 1.00566e-28 1.35048e-27)
(1.26866e-26 8.04551e-29 1.08042e-27)
(6.91577e-27 4.3858e-29 5.88963e-28)
(4.93695e-27 3.13089e-29 4.20443e-28)
(3.9002e-27 2.47341e-29 3.32151e-28)
(2.05222e-27 1.30147e-29 1.74773e-28)
(1.7505e-27 1.11014e-29 1.49077e-28)
(1.29523e-27 8.21411e-30 1.10305e-28)
(5.42455e-28 3.44015e-30 4.61972e-29)
(4.93054e-28 3.12686e-30 4.19902e-29)
(3.07531e-28 1.95032e-30 2.61906e-29)
(1.58065e-28 1.00244e-30 1.34617e-29)
(1.37101e-28 8.69488e-31 1.16763e-29)
(8.2955e-29 5.26096e-31 7.06491e-30)
(5.85056e-29 3.71039e-31 4.98267e-30)
(4.01299e-29 2.54501e-31 3.41769e-30)
(2.65489e-29 1.68372e-31 2.26106e-30)
(1.6691e-29 1.05854e-31 1.42151e-30)
(7.32329e-30 4.64444e-32 6.23702e-31)
(4.85981e-30 3.08211e-32 4.13897e-31)
(2.81737e-30 1.7868e-32 2.39949e-31)
(1.96956e-30 1.24911e-32 1.67743e-31)
(1.73264e-30 1.09886e-32 1.47565e-31)
(9.69152e-31 6.14648e-33 8.25412e-32)
(6.45465e-31 4.09362e-33 5.49735e-32)
(4.02173e-31 2.55064e-33 3.42527e-32)
(2.53034e-31 1.60478e-33 2.15508e-32)
(1.56849e-31 9.94757e-34 1.33587e-32)
(6.92989e-32 4.39507e-34 5.90219e-33)
(5.68231e-32 3.60384e-34 4.83964e-33)
(3.83962e-32 2.43517e-34 3.27023e-33)
(2.18752e-32 1.38737e-34 1.86313e-33)
(1.43163e-32 9.07973e-35 1.21934e-33)
(8.23315e-33 5.22171e-35 7.01234e-34)
(5.04194e-33 3.19776e-35 4.29432e-34)
(2.61637e-33 1.65939e-35 2.22843e-34)
(1.47891e-33 9.3798e-36 1.25963e-34)
(1.14589e-33 7.26767e-36 9.75989e-35)
(7.55307e-34 4.79045e-36 6.43318e-35)
(3.44915e-34 2.1876e-36 2.93777e-35)
(2.24601e-34 1.42452e-36 1.91302e-35)
(1.185e-34 7.51582e-37 1.00932e-35)
(5.66205e-35 3.59115e-37 4.82266e-36)
(3.68779e-35 2.33898e-37 3.14109e-36)
(2.321e-35 1.4721e-37 1.97693e-36)
(1.54629e-35 9.80736e-38 1.31706e-36)
(9.95122e-36 6.3116e-38 8.47602e-37)
(5.26559e-36 3.33973e-38 4.48502e-37)
(2.94496e-36 1.86787e-38 2.50842e-37)
(1.36137e-36 8.63471e-39 1.15958e-37)
(8.26705e-37 5.24354e-39 7.04172e-38)
(5.79176e-37 3.67354e-39 4.93333e-38)
(3.19595e-37 2.0271e-39 2.72227e-38)
(1.60521e-37 1.01815e-39 1.3673e-38)
(8.7165e-38 5.52868e-40 7.42463e-39)
(4.36588e-38 2.7692e-40 3.71885e-39)
(2.74085e-38 1.73847e-40 2.33466e-39)
(1.73149e-38 1.09826e-40 1.4749e-39)
(9.2966e-39 5.89669e-41 7.91892e-40)
(5.16786e-39 3.2779e-41 4.40205e-40)
(2.37862e-39 1.50873e-41 2.02615e-40)
(9.03483e-40 5.73073e-42 7.69609e-41)
(5.80041e-40 3.67918e-42 4.94095e-41)
(3.76047e-40 2.38526e-42 3.20329e-41)
(2.18047e-40 1.38307e-42 1.85741e-41)
(1.27276e-40 8.07309e-43 1.08418e-41)
(5.73253e-41 3.63616e-43 4.8832e-42)
(2.5762e-41 1.6341e-43 2.19454e-42)
(1.461e-41 9.26738e-44 1.24457e-42)
(8.10517e-42 5.14125e-44 6.9045e-43)
(4.22118e-42 2.67757e-44 3.59587e-43)
(2.5436e-42 1.61346e-44 2.16681e-43)
(1.12409e-42 7.13037e-45 9.57581e-44)
(5.04456e-43 3.1999e-45 4.29734e-44)
(3.01169e-43 1.91039e-45 2.56559e-44)
(1.54583e-43 9.80569e-46 1.31686e-44)
(6.60158e-44 4.18763e-46 5.62386e-45)
(3.26787e-44 2.07301e-46 2.78401e-45)
(9.20888e-45 5.8427e-47 7.84697e-46)
(4.40227e-45 2.7933e-47 3.75159e-46)
(2.93234e-45 1.86063e-47 2.49896e-46)
(1.58898e-45 1.00825e-47 1.35415e-46)
(6.62308e-46 4.20251e-48 5.64427e-47)
(3.82134e-46 2.42474e-48 3.2566e-47)
(1.69816e-46 1.07753e-48 1.44721e-47)
(7.23463e-47 4.59062e-49 6.16554e-48)
(4.20409e-47 2.66764e-49 3.58285e-48)
(1.92265e-47 1.22e-49 1.63856e-48)
(7.55769e-48 4.79569e-50 6.44102e-49)
(3.8875e-48 2.46678e-50 3.3131e-49)
(1.84741e-48 1.17226e-50 1.57444e-49)
(8.30654e-49 5.27087e-51 7.07924e-50)
(3.99798e-49 2.53692e-51 3.4073e-50)
(1.48326e-49 9.41208e-52 1.26412e-50)
(5.51507e-50 3.49963e-52 4.70031e-51)
(3.28786e-50 2.08634e-52 2.80213e-51)
(1.69916e-50 1.07822e-52 1.44814e-51)
(6.21854e-51 3.94606e-53 5.2999e-52)
(2.8225e-51 1.79106e-53 2.40555e-52)
(1.38526e-51 8.79044e-54 1.18063e-52)
(5.26617e-52 3.34176e-54 4.48828e-53)
(2.50384e-52 1.58887e-54 2.13399e-53)
(1.1468e-52 7.27727e-55 9.77406e-54)
(4.08865e-53 2.59455e-55 3.48474e-54)
(1.87874e-53 1.19221e-55 1.60126e-54)
(9.36527e-54 5.94301e-56 7.98206e-55)
(2.85108e-54 1.80925e-56 2.43e-55)
(1.05384e-54 6.68751e-57 8.98201e-56)
(5.24453e-55 3.32812e-57 4.47e-56)
(2.21548e-55 1.40592e-57 1.88829e-56)
(6.73867e-56 4.27631e-58 5.74353e-57)
(3.54617e-56 2.25038e-58 3.0225e-57)
(1.52379e-56 9.66996e-59 1.29878e-57)
(5.02222e-57 3.18711e-59 4.28061e-58)
(2.51626e-57 1.59682e-59 2.1447e-58)
(1.00974e-57 6.40787e-60 8.60646e-59)
(3.24832e-58 2.06142e-60 2.76871e-59)
(1.31241e-58 8.32869e-61 1.11864e-59)
(5.38987e-59 3.42049e-61 4.59408e-60)
(1.2656e-59 8.03175e-62 1.07875e-60)
(5.8384e-60 3.70515e-62 4.97643e-61)
(3.30745e-60 2.09898e-62 2.81916e-61)
(1.27601e-60 8.09787e-63 1.08763e-61)
(2.68151e-61 1.70176e-63 2.28566e-62)
(1.44203e-61 9.15149e-64 1.22916e-62)
(6.06363e-62 3.84817e-64 5.16855e-63)
(1.68227e-62 1.06762e-64 1.43394e-63)
(6.94474e-63 4.40734e-65 5.9196e-64)
(2.95057e-63 1.87252e-65 2.51503e-64)
(8.45426e-64 5.36538e-66 7.20637e-65)
(1.91737e-64 1.21685e-66 1.63437e-65)
(9.48408e-65 6.01901e-67 8.08426e-66)
(4.48332e-65 2.84531e-67 3.8216e-66)
(8.27343e-66 5.2507e-68 7.05238e-67)
(4.12767e-66 2.61962e-68 3.51848e-67)
(1.67635e-66 1.06389e-68 1.42894e-67)
(4.6287e-67 2.93761e-69 3.94558e-68)
(1.44149e-67 9.14848e-70 1.22876e-68)
(5.56926e-68 3.53457e-70 4.74737e-69)
(2.16934e-68 1.37679e-70 1.84921e-69)
(7.44711e-70 4.72765e-72 6.35028e-71)
(4.69408e-70 2.97995e-72 4.00272e-71)
(2.39902e-70 1.52298e-72 2.04569e-71)
(5.75187e-71 3.65149e-73 4.90475e-72)
(2.00866e-71 1.27516e-73 1.71283e-72)
(7.3467e-72 4.66392e-74 6.26468e-73)
(2.62398e-72 1.6658e-74 2.23755e-73)
(3.97657e-73 2.52448e-75 3.39094e-74)
(2.18359e-73 1.38623e-75 1.86202e-74)
(9.06336e-74 5.75382e-76 7.72867e-75)
(1.59426e-74 1.0121e-76 1.35948e-75)
(6.38571e-75 4.05391e-77 5.44532e-76)
(2.66798e-75 1.69374e-77 2.27508e-76)
(8.95699e-76 5.68628e-78 7.63798e-77)
(1.4901e-76 9.4598e-79 1.27067e-77)
(7.78529e-77 4.94245e-79 6.63887e-78)
(3.11883e-77 1.97998e-79 2.65958e-78)
(6.44939e-78 4.09437e-80 5.4997e-79)
(2.55612e-78 1.62275e-80 2.17973e-79)
(9.9643e-79 6.32583e-81 8.49706e-80)
(2.69596e-79 1.71153e-81 2.29898e-80)
(5.52241e-80 3.50592e-82 4.70925e-81)
(2.82065e-80 1.7907e-82 2.40532e-81)
(1.07713e-80 6.83818e-83 9.1852e-82)
(2.24437e-81 1.42485e-83 1.91391e-82)
(9.01574e-82 5.7237e-84 7.68825e-83)
(3.49144e-82 2.21656e-84 2.97735e-83)
(9.97382e-83 6.33197e-85 8.50528e-84)
(2.16582e-83 1.37498e-85 1.84693e-84)
(1.04394e-83 6.62754e-86 8.90234e-85)
(3.49835e-84 2.22097e-86 2.98327e-85)
(7.0157e-85 4.45399e-87 5.98276e-86)
(2.97815e-85 1.89071e-87 2.53967e-86)
(1.20728e-85 7.66459e-88 1.02953e-86)
(3.45036e-86 2.1905e-88 2.94238e-87)
(7.79256e-87 4.94721e-89 6.64527e-88)
(3.6769e-87 2.33434e-89 3.13556e-88)
(1.22824e-87 7.79767e-90 1.04742e-88)
(2.86493e-88 1.81885e-90 2.44315e-89)
(1.14756e-88 7.2855e-91 9.78617e-90)
(4.05417e-89 2.57386e-91 3.45731e-90)
(9.79207e-90 6.21668e-92 8.35048e-91)
(2.63855e-90 1.67513e-92 2.25011e-91)
(1.2742e-90 8.08953e-93 1.08662e-91)
(4.2721e-91 2.71224e-93 3.64318e-92)
(9.9861e-92 6.33991e-94 8.51603e-93)
(3.99405e-92 2.53572e-94 3.40608e-93)
(1.38368e-92 8.78465e-95 1.17999e-93)
(4.23988e-93 2.69178e-95 3.61572e-94)
(9.24671e-94 5.87048e-96 7.88549e-95)
(3.33305e-94 2.11608e-96 2.84241e-95)
(1.63965e-95 1.04121e-97 1.39866e-96)
(4.89153e-96 3.10622e-98 4.17261e-97)
(1.98818e-96 1.26253e-98 1.69597e-97)
(6.80473e-97 4.32113e-99 5.80461e-98)
(2.10917e-97 1.33936e-99 1.79918e-98)
(4.74872e-98 3.01552e-100 4.05078e-99)
(2.05492e-98 1.30491e-100 1.7529e-99)
(7.27236e-99 4.61811e-101 6.20354e-100)
(1.69498e-99 1.07634e-101 1.44586e-100)
(6.31052e-100 4.00728e-102 5.38303e-101)
(1.70374e-100 1.08191e-102 1.45334e-101)
(7.12671e-101 4.52558e-103 6.07925e-102)
(1.63804e-101 1.04018e-103 1.39729e-102)
(6.9271e-102 4.39881e-104 5.909e-103)
(2.50438e-102 1.59031e-104 2.1363e-103)
(5.19577e-103 3.2994e-105 4.43212e-104)
(2.21669e-103 1.40764e-105 1.8909e-104)
(7.7104e-104 4.89627e-106 6.57721e-105)
(2.5416e-104 1.61396e-106 2.16805e-105)
(4.70391e-105 2.98706e-107 4.01255e-106)
(1.74915e-105 1.11074e-107 1.49207e-106)
(8.65081e-106 5.4934e-108 7.37934e-107)
(1.68993e-106 1.07313e-108 1.44155e-107)
(7.46105e-107 4.73789e-109 6.36447e-108)
(2.64575e-107 1.6801e-109 2.2569e-108)
(7.9811e-108 5.06814e-110 6.8081e-109)
(1.92319e-108 1.22126e-110 1.64053e-109)
(7.89754e-109 5.01508e-111 6.73676e-110)
(3.14069e-109 1.99439e-111 2.6791e-110)
(4.15861e-110 2.64079e-112 3.5474e-111)
(2.10441e-110 1.33634e-112 1.79511e-111)
(9.19593e-111 5.83956e-113 7.84435e-112)
(2.60705e-111 1.65553e-113 2.22389e-112)
(6.66845e-112 4.23459e-114 5.68837e-113)
(2.70251e-112 1.71614e-114 2.30531e-113)
(1.02208e-112 6.4904e-115 8.71864e-114)
(1.74284e-113 1.10673e-115 1.48668e-114)
(8.48724e-114 5.38953e-116 7.23981e-115)
(3.31457e-114 2.10481e-116 2.82741e-115)
(7.26628e-115 4.61422e-117 6.19834e-116)
(2.17402e-115 1.38054e-117 1.85449e-116)
(9.4135e-116 5.97771e-118 8.02994e-117)
(3.38496e-116 2.14951e-118 2.88745e-117)
(5.84768e-117 3.71338e-119 4.98821e-118)
(2.86723e-117 1.82074e-119 2.44582e-118)
(1.10658e-117 7.02701e-120 9.43944e-119)
(2.67909e-118 1.70127e-120 2.28533e-119)
(8.10883e-119 5.14926e-121 6.91705e-120)
(3.18629e-119 2.02336e-121 2.71799e-120)
(7.29607e-120 4.63315e-122 6.22377e-121)
(0 0 0)
(0 0 0)
(0 0 0)
(0 0 0)
(0 0 0)
(0 0 0)
(0 0 0)
(0 0 0)
(0 0 0)
(0 0 0)
(0 0 0)
(0 0 0)
(0 0 0)
(0 0 0)
(0 0 0)
(0 0 0)
(0 0 0)
(0 0 0)
(0 0 0)
(0 0 0)
(0 0 0)
(0 0 0)
(0 0 0)
(0 0 0)
(0 0 0)
(0 0 0)
(0 0 0)
(0 0 0)
(0 0 0)
(0 0 0)
(0 0 0)
(0 0 0)
(0 0 0)
(0 0 0)
(0 0 0)
(0 0 0)
(0 0 0)
(0 0 0)
(0 0 0)
(0 0 0)
(0 0 0)
(0 0 0)
(0 0 0)
(0 0 0)
(0 0 0)
(0 0 0)
(0 0 0)
(0 0 0)
(0 0 0)
(0 0 0)
(0 0 0)
(0 0 0)
(0 0 0)
(0 0 0)
(0 0 0)
(0 0 0)
(0 0 0)
(0 0 0)
(0 0 0)
(0 0 0)
(0 0 0)
(0 0 0)
(0 0 0)
(0 0 0)
(0 0 0)
(0 0 0)
(0 0 0)
(0 0 0)
(0 0 0)
(0 0 0)
(0 0 0)
(0 0 0)
(0 0 0)
(0 0 0)
(0 0 0)
(0 0 0)
(0 0 0)
(0 0 0)
(0 0 0)
(0 0 0)
(0 0 0)
(0 0 0)
(0 0 0)
(0 0 0)
(0 0 0)
(0 0 0)
(0 0 0)
(0 0 0)
(0 0 0)
(0 0 0)
(0 0 0)
(0 0 0)
(0 0 0)
(0 0 0)
(0 0 0)
(0 0 0)
(0 0 0)
(0 0 0)
(0 0 0)
(0 0 0)
(0 0 0)
(0 0 0)
(0 0 0)
(0 0 0)
(0 0 0)
(0 0 0)
(0 0 0)
(0 0 0)
(0 0 0)
(0 0 0)
(0 0 0)
(0 0 0)
(0 0 0)
(0 0 0)
(0 0 0)
(0 0 0)
(0 0 0)
(0 0 0)
(0 0 0)
(0 0 0)
(0 0 0)
(0 0 0)
(0 0 0)
(0 0 0)
(0 0 0)
(0 0 0)
(0 0 0)
(0 0 0)
(0 0 0)
(0 0 0)
(0 0 0)
(0 0 0)
(0 0 0)
(0 0 0)
(0 0 0)
(0 0 0)
(0 0 0)
(0 0 0)
(0 0 0)
(0 0 0)
(0 0 0)
(0 0 0)
(0 0 0)
(0 0 0)
(0 0 0)
(0 0 0)
(0 0 0)
(0 0 0)
(0 0 0)
)
;

boundaryField
{
    wall_bottom
    {
        type            calculated;
        value           uniform (4.85065e-05 -2.9403e-08 8.29949e-08);
    }
    wall_top
    {
        type            calculated;
        value           uniform (0 0 0);
    }
    front1
    {
        type            cyclic;
    }
    back1
    {
        type            cyclic;
    }
    left1
    {
        type            cyclic;
    }
    right1
    {
        type            cyclic;
    }
    front2
    {
        type            cyclic;
    }
    back2
    {
        type            cyclic;
    }
    left2
    {
        type            cyclic;
    }
    right2
    {
        type            cyclic;
    }
    front3
    {
        type            cyclic;
    }
    back3
    {
        type            cyclic;
    }
    left3
    {
        type            cyclic;
    }
    right3
    {
        type            cyclic;
    }
}


// ************************************************************************* //
