/*--------------------------------*- C++ -*----------------------------------*\
| =========                 |                                                 |
| \\      /  F ield         | OpenFOAM: The Open Source CFD Toolbox           |
|  \\    /   O peration     | Version:  2.4.0                                 |
|   \\  /    A nd           | Web:      www.OpenFOAM.org                      |
|    \\/     M anipulation  |                                                 |
\*---------------------------------------------------------------------------*/
FoamFile
{
    version     2.0;
    format      ascii;
    class       volScalarField;
    location    "0";
    object      p;
}
// * * * * * * * * * * * * * * * * * * * * * * * * * * * * * * * * * * * * * //

dimensions      [0 2 -2 0 0 0 0];

internalField   nonuniform List<scalar> 
635
(
-0.00896787
-0.00896787
-0.00896787
-0.00896787
-0.00896787
-0.00896787
-0.00896787
-0.00896787
-0.00896787
-0.00896787
-0.00896787
-0.00896787
-0.00896787
-0.00896787
-0.00896787
-0.00896787
-0.00896787
-0.00896787
-0.00898768
-0.00900808
-0.00917818
-0.00979324
-0.0107893
-0.0117648
-0.0151368
-0.0186962
-0.0229262
-0.0275776
-0.0301642
-0.0331073
-0.0357032
-0.0387004
-0.0407541
-0.0427872
-0.0444011
-0.0460605
-0.0482838
-0.04955
-0.0503168
-0.0505732
-0.0573156
-0.057519
-0.0581271
-0.0591311
-0.0608906
-0.0621631
-0.0633628
-0.064849
-0.0663235
-0.0684268
-0.0701667
-0.0721393
-0.0739093
-0.0772003
-0.0802788
-0.0829061
-0.085704
-0.0878377
-0.0910953
-0.0935523
-0.0948426
-0.0972059
-0.10031
-0.10229
-0.104557
-0.106624
-0.109046
-0.111773
-0.11333
-0.115129
-0.116717
-0.11907
-0.120866
-0.122789
-0.124426
-0.126322
-0.129164
-0.130794
-0.131781
-0.132111
-0.146064
-0.146392
-0.147372
-0.14899
-0.151812
-0.153697
-0.155325
-0.15724
-0.159029
-0.161377
-0.162968
-0.164772
-0.166194
-0.168266
-0.169766
-0.171096
-0.173204
-0.177443
-0.184699
-0.190387
-0.193377
-0.198858
-0.205773
-0.209673
-0.210603
-0.210692
-0.210692
-0.210692
-0.210692
-0.210692
-0.210692
-0.210692
-0.210692
-0.210692
-0.210692
-0.210692
-0.210692
-0.210692
-0.210692
-0.210692
-0.210692
-0.210692
-0.210692
-0.210692
-0.210692
-0.210692
-0.210692
-0.210692
-0.210692
-0.210692
-0.210692
-0.210692
-0.210692
-0.210692
-0.210692
-0.210692
-0.210692
-0.210692
-0.210692
-0.210692
-0.210692
-0.210692
-0.210692
-0.210692
-0.210692
-0.210692
-0.210692
-0.210692
-0.210692
-0.210692
-0.210692
-0.210692
-0.210692
-0.210692
-0.210692
-0.210692
-0.210692
-0.210692
-0.210692
-0.210692
-0.147353
-0.145925
-0.141651
-0.134596
-0.122284
-0.113984
-0.106739
-0.0981581
-0.0900754
-0.0793405
-0.0718276
-0.0633099
-0.0561987
-0.0445242
-0.0347898
-0.026549
-0.0178061
-0.0112627
-0.00128459
0.00623799
0.0103917
0.0183867
0.0291405
0.0364591
0.047881
0.0589499
0.0721257
0.0889455
0.0997863
0.113146
0.124929
0.136502
0.143715
0.150284
0.155072
0.159156
0.163453
0.165857
0.167312
0.167799
0.165285
0.165285
0.16522
0.165079
0.164406
0.164179
0.164136
0.163924
0.163692
0.163521
0.163521
0.16352
0.163519
0.163522
0.163558
0.163616
0.163683
0.163685
0.163693
0.1637
0.163702
0.163705
0.163709
0.163713
0.163714
0.163709
0.163702
0.163702
0.163698
0.163694
0.163692
0.163696
0.1637
0.163703
0.163702
0.163697
0.163693
0.163694
0.163697
0.163699
0.163699
0.1637
0.1637
0.1637
0.163698
0.163698
0.163698
0.163699
0.163699
0.163699
0.163698
0.163698
0.163698
0.163698
0.163698
0.163698
0.163698
0.163698
0.163698
0.163698
0.163698
0.163698
0.163698
0.163698
0.163698
0.163698
0.163698
0.163698
0.163698
0.163698
0.163698
0.163698
0.163698
0.163698
0.163698
0.163698
0.163698
0.163698
0.163698
0.163698
0.163698
0.163698
0.163698
0.163698
0.163698
0.163698
0.163698
0.163698
0.163698
0.163698
0.163698
0.163698
0.163698
0.163698
0.163698
0.163698
0.163698
0.163698
0.163698
0.163698
0.163698
0.163698
0.163698
0.163698
0.163698
0.163698
0.163698
0.163698
0.163698
0.163698
0.163698
0.163698
0.163698
0.163698
0.163698
0.163698
0.163698
0.163698
0.163698
0.163698
0.163698
0.163698
0.163698
0.163698
0.163698
0.163698
0.163698
0.163698
0.163698
0.163698
0.163698
0.163698
0.163698
0.163698
0.163698
0.163698
0.163698
0.163698
0.163698
0.163698
0.163698
0.163698
0.163698
0.163698
0.163698
0.163698
0.163698
0.163698
0.163698
0.163698
0.163698
0.163698
0.163698
0.163698
0.163698
0.163698
0.163698
0.163698
0.163698
0.163698
0.163698
0.163698
0.163698
0.163698
0.163698
0.163698
0.163698
0.163698
0.163698
0.163698
0.163698
0.163698
0.163698
0.163698
0.163698
0.163698
0.163698
0.163698
0.163698
0.163698
0.163698
0.163698
0.163698
0.163698
0.163698
0.163698
0.163698
0.163698
0.163698
0.163698
0.163698
0.163698
0.163698
0.163698
0.163698
0.163698
0.163698
0.163698
0.163698
0.163698
0.163698
0.163698
0.163698
0.163698
0.163698
0.163698
0.163698
0.163698
0.163698
0.163698
0.163698
0.163698
0.163698
0.163698
0.163698
0.163698
0.163698
0.163698
0.163698
0.163698
0.163698
0.163698
0.163698
0.163698
0.163698
0.163698
0.163698
0.163698
0.163698
0.163698
0.163698
0.163698
0.163698
0.163698
0.163698
0.163698
0.163698
0.163698
0.163698
0.163698
0.163698
0.163698
0.163698
0.163698
0.163698
0.163698
0.163698
0.163698
0.163698
0.163698
0.163698
0.163698
0.163698
0.163698
0.163698
0.163698
0.163698
0.163698
0.163698
0.163698
0.163698
0.163698
0.163698
0.163698
0.163698
0.163698
0.163698
0.163698
0.163698
0.163698
0.163698
0.163698
0.163698
0.163698
0.163698
0.163698
0.163698
0.163698
0.163698
0.163698
0.163698
0.163698
0.163698
0.163698
0.163698
0.163698
0.163698
0.163698
0.163698
0.163698
0.163698
0.163698
0.163698
0.163698
0.163698
0.163698
0.163698
0.163698
0.163698
0.163698
0.163698
0.163698
0.163698
0.163698
0.163698
0.163698
0.163698
0.163698
0.163698
0.163698
0.163698
0.163698
0.163698
0.163698
0.163698
0.163698
0.163698
0.163698
0.163698
0.163698
0.163698
0.163698
0.163698
0.163698
0.163698
0.163698
0.163698
0.163698
0.163698
0.163698
0.163698
0.163698
0.163698
0.163698
0.163698
0.163698
0.163698
0.163698
0.163698
0.163698
0.163698
0.163698
0.163698
0.163698
0.163698
0.163698
0.163698
0.163698
0.163698
0.163698
0.163698
0.163698
0.163698
0.163698
0.163698
0.163698
0.163698
0.163698
0.163698
0.163698
0.163698
0.163698
0.163698
0.163698
0.163698
0.163698
0.163698
0.163698
0.163698
0.163698
0.163698
0.163698
0.163698
0.163698
0.163698
0.163698
0.163698
0.163698
0.163698
0.163698
0.163698
0.163698
0.163698
0.163698
0.163698
0.163698
0.163698
0.163698
0.163698
0.163698
0.163698
0.163698
0.163698
0.163698
0.163698
0.163698
0.163698
0.163698
0.163698
0.163698
0.163698
0.163698
0.163698
0.163698
0.163698
0.163698
0.163698
0.163698
0.163698
0.163698
0.163698
0.163698
0.163698
0.163698
0.163698
0.163698
0.163698
0.163698
0.163698
0.163698
0.163698
0.163698
0.163698
0.163698
0.163698
0.163698
0.163698
0.163698
0.163698
0.163698
0.163698
0.163698
0.163698
0.163698
0.163698
)
;

boundaryField
{
    wall_bottom
    {
        type            fixedFluxPressure;
        gradient        uniform 0;
        value           uniform -0.00896787;
    }
    wall_top
    {
        type            fixedValue;
        value           uniform 0;
    }
    front1
    {
        type            cyclic;
    }
    back1
    {
        type            cyclic;
    }
    left1
    {
        type            cyclic;
    }
    right1
    {
        type            cyclic;
    }
    front2
    {
        type            cyclic;
    }
    back2
    {
        type            cyclic;
    }
    left2
    {
        type            cyclic;
    }
    right2
    {
        type            cyclic;
    }
    front3
    {
        type            cyclic;
    }
    back3
    {
        type            cyclic;
    }
    left3
    {
        type            cyclic;
    }
    right3
    {
        type            cyclic;
    }
}


// ************************************************************************* //
