/*--------------------------------*- C++ -*----------------------------------*\
| =========                 |                                                 |
| \\      /  F ield         | OpenFOAM: The Open Source CFD Toolbox           |
|  \\    /   O peration     | Version:  2.4.0                                 |
|   \\  /    A nd           | Web:      www.OpenFOAM.org                      |
|    \\/     M anipulation  |                                                 |
\*---------------------------------------------------------------------------*/
FoamFile
{
    version     2.0;
    format      ascii;
    class       volScalarField;
    location    "0";
    object      tf;
}
// * * * * * * * * * * * * * * * * * * * * * * * * * * * * * * * * * * * * * //

dimensions      [0 0 1 0 0 0 0];

internalField   nonuniform List<scalar> 
635
(
10.1918
10.1884
10.1782
10.1614
10.1316
10.1079
10.0835
10.0518
10.0189
9.96906
9.92294
9.87066
9.82236
9.72856
9.63775
9.55999
9.47646
9.40995
9.30738
9.22973
9.18737
9.10675
8.99931
8.92793
8.82755
8.73202
8.61929
8.48809
8.4105
8.31904
8.23837
8.13348
8.05746
7.97892
7.91409
7.84258
7.73999
7.68132
7.64578
7.6339
7.22944
7.21981
7.19101
7.14346
7.06043
7.0039
6.95397
6.89441
6.83782
6.76172
6.70672
6.64437
6.59294
6.51047
6.44341
6.38684
6.32773
6.28695
6.22597
6.18035
6.15648
6.11296
6.05544
6.01811
5.97093
5.92695
5.87533
5.81775
5.78522
5.74785
5.71489
5.67225
5.64143
5.60963
5.58342
5.55458
5.5133
5.48969
5.47539
5.47061
5.30339
5.29922
5.28672
5.26609
5.23006
5.20527
5.1831
5.15647
5.13094
5.0962
5.07032
5.04098
5.01657
4.97679
4.94386
4.91601
4.88662
4.86524
4.83288
4.80856
4.79562
4.77165
4.73989
4.7191
4.69178
4.66611
4.6359
4.60142
4.58143
4.55812
4.53756
4.50904
4.4878
4.46544
4.44667
4.4254
4.39413
4.37623
4.36538
4.36175
4.22239
4.21836
4.2063
4.18638
4.15153
4.12683
4.10405
4.07616
4.04886
4.0106
3.98011
3.94555
3.91517
3.86051
3.81078
3.76837
3.72273
3.68618
3.62967
3.58685
3.56289
3.51617
3.45325
3.4103
3.34258
3.27684
3.19708
3.0702
2.97466
2.84874
2.73767
2.55094
2.40236
2.23882
2.0967
1.92645
1.66452
1.51409
1.42298
1.39252
0.975133
0.973229
0.967537
0.958137
0.941871
0.932453
0.925821
0.919135
0.914172
0.910175
0.912175
0.914442
0.910749
0.887218
0.852429
0.820649
0.7736
0.687336
0.540678
0.425935
0.365808
0.255923
0.11724
0.0389436
0.0194356
0.016728
0.0156248
0.0145245
0.0139846
0.0134199
0.0129218
0.0121971
0.0116476
0.0110616
0.0105651
0.00999285
0.00913954
0.00865037
0.00835411
0.00825505
0.00746272
0.00746272
0.00774055
0.0083347
0.011188
0.0121509
0.0126165
0.0149098
0.017429
0.0192756
0.019559
0.0249106
0.0289407
0.0300721
0.0326051
0.0366811
0.0412857
0.0414624
0.0452325
0.0488504
0.0502104
0.0523152
0.0555575
0.0587063
0.0594621
0.0621131
0.0662107
0.0662107
0.0682759
0.0697581
0.071049
0.0719899
0.0732161
0.0743957
0.0753079
0.0772018
0.07885
0.0791749
0.0798532
0.0804749
0.0805646
0.0816529
0.0820374
0.0821455
0.0832391
0.0834359
0.083735
0.084319
0.0845218
0.0847541
0.0851894
0.0852986
0.085549
0.0859792
0.0860566
0.0863471
0.0866122
0.0867071
0.086952
0.0870941
0.0872596
0.087397
0.0876482
0.0880051
0.0881022
0.0883589
0.0885434
0.0886211
0.0888715
0.0890547
0.0892968
0.0894658
0.0897239
0.0900741
0.0901973
0.090398
0.090695
0.0909474
0.0912168
0.0915065
0.091793
0.0921973
0.09235
0.0925718
0.0929909
0.0933703
0.0938393
0.0942111
0.0945241
0.0949462
0.0952833
0.0956126
0.0960955
0.0965175
0.0971605
0.0976098
0.0979221
0.0984077
0.0990681
0.0996046
0.100294
0.100777
0.101213
0.101766
0.102348
0.103341
0.104291
0.104812
0.105401
0.106143
0.106794
0.107695
0.108865
0.109622
0.110423
0.111537
0.112352
0.113421
0.114704
0.115516
0.116515
0.117842
0.119352
0.121051
0.122458
0.123452
0.124942
0.126867
0.128267
0.130081
0.132072
0.133664
0.135841
0.138305
0.140242
0.14232
0.145088
0.14779
0.151013
0.154352
0.157025
0.159713
0.164519
0.168155
0.171308
0.176593
0.181336
0.185493
0.191351
0.19635
0.201538
0.209914
0.217726
0.223666
0.230158
0.242027
0.249441
0.256707
0.268874
0.279089
0.287877
0.299691
0.312696
0.324217
0.338755
0.352402
0.362582
0.373594
0.39357
0.404965
0.415864
0.431333
0.445056
0.455878
0.468542
0.48719
0.496034
0.505193
0.522522
0.532353
0.541265
0.553161
0.566151
0.573378
0.579831
0.598886
0.604799
0.611306
0.621687
0.631406
0.638012
0.644342
0.657127
0.66225
0.668226
0.679025
0.68636
0.691993
0.697827
0.709178
0.714501
0.720119
0.728968
0.735821
0.741926
0.748831
0.758835
0.764272
0.769997
0.77911
0.786595
0.792643
0.79921
0.809396
0.816008
0.82269
0.832281
0.840356
0.847034
0.854452
0.86613
0.873261
0.880425
0.890822
0.900744
0.908782
0.917653
0.930735
0.939032
0.947428
0.959957
0.971596
0.980554
0.990086
1.00588
1.01647
1.02693
1.04118
1.05468
1.06519
1.07648
1.09624
1.10713
1.11796
1.13505
1.15267
1.16519
1.17733
1.19985
1.21217
1.22466
1.24677
1.26314
1.27597
1.28976
1.31907
1.33183
1.34424
1.36911
1.38642
1.40128
1.4188
1.44461
1.45771
1.47135
1.50336
1.51884
1.53341
1.55218
1.57816
1.59311
1.60801
1.63577
1.65107
1.66707
1.68986
1.71248
1.72704
1.7418
1.76908
1.78501
1.79998
1.81941
1.8403
1.85587
1.87171
1.89576
1.9105
1.92445
1.94272
1.96266
1.97614
1.98951
2.0108
2.02537
2.0386
2.05498
2.07224
2.08413
2.09598
2.11535
2.12761
2.13861
2.15184
2.16738
2.17809
2.18862
2.20449
2.21449
2.2236
2.23467
2.24766
2.2556
2.26303
2.27607
2.28456
2.2919
2.29974
2.3092
2.31489
2.32011
2.33021
2.33485
2.33915
2.34435
2.35091
2.35417
2.35672
2.362
2.36404
2.36593
2.36819
2.36975
2.37047
2.37098
2.37098
2.37098
2.37098
2.37098
2.37098
2.37098
2.37098
2.37098
2.37098
2.37098
2.37098
2.37098
2.37098
2.37098
2.37098
2.37098
2.37098
2.37098
2.37098
2.37098
2.37098
2.37098
2.37098
2.37098
2.37098
2.37098
2.37098
2.37098
2.37098
2.37098
2.37098
2.37098
2.37098
2.37098
2.37098
2.37098
2.37098
2.37098
2.37098
2.37098
2.37098
2.37098
2.37098
2.37098
2.37098
2.37098
2.37098
2.37098
2.37098
2.37098
2.37098
2.37098
2.37098
2.37098
2.37098
2.37098
2.37098
2.37098
2.37098
2.37098
2.37098
2.37098
2.37098
2.37098
2.37098
2.37098
2.37098
2.37098
2.37098
2.37098
2.37098
2.37098
2.37098
2.37098
2.37098
2.37098
2.37098
2.37098
2.37098
2.37098
2.37098
2.37098
2.37098
2.37098
2.37098
2.37098
2.37098
2.37098
2.37098
2.37098
2.37098
2.37098
2.37098
2.37098
2.37098
2.37098
2.37098
2.37098
2.37098
2.37098
)
;

boundaryField
{
    wall_bottom
    {
        type            calculated;
        value           uniform 10.1929;
    }
    wall_top
    {
        type            zeroGradient;
    }
    front1
    {
        type            cyclic;
    }
    back1
    {
        type            cyclic;
    }
    left1
    {
        type            cyclic;
    }
    right1
    {
        type            cyclic;
    }
    front2
    {
        type            cyclic;
    }
    back2
    {
        type            cyclic;
    }
    left2
    {
        type            cyclic;
    }
    right2
    {
        type            cyclic;
    }
    front3
    {
        type            cyclic;
    }
    back3
    {
        type            cyclic;
    }
    left3
    {
        type            cyclic;
    }
    right3
    {
        type            cyclic;
    }
}


// ************************************************************************* //
